Program Version,EnergyPlus, Version 9.4.0-998c4b761e, YMD=2022.04.21 10:27
1,5,Environment Title[],Latitude[deg],Longitude[deg],Time Zone[],Elevation[m]
2,8,Day of Simulation[],Month[],Day of Month[],DST Indicator[1=yes 0=no],Hour[],StartMinute[],EndMinute[],DayType
3,5,Cumulative Day of Simulation[],Month[],Day of Month[],DST Indicator[1=yes 0=no],DayType  ! When Daily Report Variables Requested
4,2,Cumulative Days of Simulation[],Month[]  ! When Monthly Report Variables Requested
5,1,Cumulative Days of Simulation[] ! When Run Period Report Variables Requested
6,1,Calendar Year of Simulation[] ! When Annual Report Variables Requested
7,1,CELLS:ROOMX1,Zone Outdoor Air Drybulb Temperature [C] !TimeStep
8,1,PEOPLE CELLS:ROOMX1,People Occupant Count [] !TimeStep
195,1,CELLS:ROOMX1,Zone Mean Radiant Temperature [C] !TimeStep
196,1,CELLS:ROOMX1,Zone Mean Air Temperature [C] !TimeStep
370,1,CELLS:ROOMX1,Zone Air Relative Humidity [%] !TimeStep
692,1,CELLS:ROOMX1 IDEAL LOADS AIR,Zone Ideal Loads Zone Total Heating Energy [J] !TimeStep
11,1,Electricity:Facility [J] !Hourly
645,1,DistrictCooling:Facility [J] !Hourly
596,1,DistrictHeating:Facility [J] !Hourly
699,1,Carbon Equivalent:Facility [kg] !Hourly
12,7,Electricity:Facility [J] !Daily [Value,Min,Hour,Minute,Max,Hour,Minute]
646,7,DistrictCooling:Facility [J] !Daily [Value,Min,Hour,Minute,Max,Hour,Minute]
597,7,DistrictHeating:Facility [J] !Daily [Value,Min,Hour,Minute,Max,Hour,Minute]
700,7,Carbon Equivalent:Facility [kg] !Daily [Value,Min,Hour,Minute,Max,Hour,Minute]
13,9,Electricity:Facility [J] !Monthly [Value,Min,Day,Hour,Minute,Max,Day,Hour,Minute]
647,9,DistrictCooling:Facility [J] !Monthly [Value,Min,Day,Hour,Minute,Max,Day,Hour,Minute]
598,9,DistrictHeating:Facility [J] !Monthly [Value,Min,Day,Hour,Minute,Max,Day,Hour,Minute]
701,9,Carbon Equivalent:Facility [kg] !Monthly [Value,Min,Day,Hour,Minute,Max,Day,Hour,Minute]
15,11,Electricity:Facility [J] !RunPeriod [Value,Min,Month,Day,Hour,Minute,Max,Month,Day,Hour,Minute]
649,11,DistrictCooling:Facility [J] !RunPeriod [Value,Min,Month,Day,Hour,Minute,Max,Month,Day,Hour,Minute]
600,11,DistrictHeating:Facility [J] !RunPeriod [Value,Min,Month,Day,Hour,Minute,Max,Month,Day,Hour,Minute]
703,11,Carbon Equivalent:Facility [kg] !RunPeriod [Value,Min,Month,Day,Hour,Minute,Max,Month,Day,Hour,Minute]
10,1,Electricity:Facility [J] !TimeStep
644,1,DistrictCooling:Facility [J] !TimeStep
595,1,DistrictHeating:Facility [J] !TimeStep
698,1,Carbon Equivalent:Facility [kg] !TimeStep
End of Data Dictionary
1,FRIBOURG (O1-O1:31-12),  46.24,   6.11,   1.00, 430.10
2,1, 1, 1, 0, 1, 0.00,10.00,Sunday
7,-2.8927583267346508
8,0.0
195,7.988695645849279
196,7.387355972162579
370,40.97411290434337
692,0.0
10,968.719248
595,162031.00390780733
644,0.0
698,0.0
2,1, 1, 1, 0, 1,10.00,20.00,Sunday
7,-2.3760916600679846
8,0.0
195,7.9699033465539259
196,7.390103693136904
370,40.87667604462855
692,0.0
10,968.719248
595,161187.1741657033
644,0.0
698,0.0
2,1, 1, 1, 0, 1,20.00,30.00,Sunday
7,-1.8594249934013172
8,0.0
195,7.9545991639050339
196,7.400976080460145
370,40.787800221025388
692,0.0
10,968.719248
595,160298.10574913573
644,0.0
698,0.0
2,1, 1, 1, 0, 1,30.00,40.00,Sunday
7,-1.3427583267346508
8,0.0
195,7.941388773509
196,7.414747395294204
370,40.7189309165675
692,0.0
10,968.719248
595,159348.1352655621
644,0.0
698,0.0
2,1, 1, 1, 0, 1,40.00,50.00,Sunday
7,-0.8260916600679839
8,0.0
195,7.929698357345196
196,7.429562126814652
370,40.67094457205877
692,0.0
10,968.719248
595,158331.00901631625
644,0.0
698,0.0
2,1, 1, 1, 0, 1,50.00,60.00,Sunday
7,-0.3094249934013173
8,0.0
195,7.919650044329694
196,7.445623423046492
370,40.63910487815704
692,0.0
10,968.719248
595,157241.1881144446
644,0.0
698,0.0
2,1, 1, 1, 0, 1, 0.00,60.00,Sunday
11,5812.315488
596,958436.6162189694
645,0.0
699,0.0
2,1, 1, 1, 0, 2, 0.00,10.00,Sunday
7,-0.37609166006798397
8,0.0
195,7.90408898983396
196,7.4482899818888479
370,40.67696651363494
692,0.0
10,968.719248
595,157883.57117456877
644,0.0
698,0.0
2,1, 1, 1, 0, 2,10.00,20.00,Sunday
7,-0.44275832673465068
8,0.0
195,7.887875996771542
196,7.436673100889711
370,40.74826329915125
692,0.0
10,968.719248
595,158461.17773891099
644,0.0
698,0.0
2,1, 1, 1, 0, 2,20.00,30.00,Sunday
7,-0.5094249934013173
8,0.0
195,7.870348614928223
196,7.417613962174907
370,40.83126382254333
692,0.0
10,968.719248
595,159002.2938506917
644,0.0
698,0.0
2,1, 1, 1, 0, 2,30.00,40.00,Sunday
7,-0.576091660067984
8,0.0
195,7.851862751349947
196,7.396817400616307
370,40.91028903479657
692,0.0
10,968.719248
595,159525.1240780597
644,0.0
698,0.0
2,1, 1, 1, 0, 2,40.00,50.00,Sunday
7,-0.6427583267346506
8,0.0
195,7.833118716389259
196,7.376435313116399
370,40.98016257305774
692,0.0
10,968.719248
595,160039.5478666207
644,0.0
698,0.0
2,1, 1, 1, 0, 2,50.00,60.00,Sunday
7,-0.7094249934013173
8,0.0
195,7.81420412075653
196,7.356409627392475
370,41.04173464672257
692,0.0
10,968.719248
595,160547.91627051767
644,0.0
698,0.0
2,1, 1, 1, 0, 2, 0.00,60.00,Sunday
11,5812.315488
596,955459.6309793695
645,0.0
699,0.0
2,1, 1, 1, 0, 3, 0.00,10.00,Sunday
7,-0.8094249934013174
8,0.0
195,7.795481647087444
196,7.335533790111045
370,41.098727908261938
692,0.0
10,968.719248
595,161154.36980299347
644,0.0
698,0.0
2,1, 1, 1, 0, 3,10.00,20.00,Sunday
7,-0.9094249934013173
8,0.0
195,7.776649188083305
196,7.313569591192886
370,41.1514003283501
692,0.0
10,968.719248
595,161759.9125823457
644,0.0
698,0.0
2,1, 1, 1, 0, 3,20.00,30.00,Sunday
7,-1.0094249934013174
8,0.0
195,7.757762408280401
196,7.2909515607761
370,41.19872063007509
692,0.0
10,968.719248
595,162371.60874356223
644,0.0
698,0.0
2,1, 1, 1, 0, 3,30.00,40.00,Sunday
7,-1.1094249934013175
8,0.0
195,7.738782759566126
196,7.268102410267085
370,41.239779113327617
692,0.0
10,968.719248
595,162993.96616071673
644,0.0
698,0.0
2,1, 1, 1, 0, 3,40.00,50.00,Sunday
7,-1.2094249934013175
8,0.0
195,7.7198179517759979
196,7.245215203518206
370,41.27433072767206
692,0.0
10,968.719248
595,163629.3962538881
644,0.0
698,0.0
2,1, 1, 1, 0, 3,50.00,60.00,Sunday
7,-1.3094249934013174
8,0.0
195,7.7008400147015279
196,7.222308266177865
370,41.30260979433956
692,0.0
10,968.719248
595,164278.47427224354
644,0.0
698,0.0
2,1, 1, 1, 0, 3, 0.00,60.00,Sunday
11,5812.315488
596,976187.7278157497
645,0.0
699,0.0
2,1, 1, 1, 0, 4, 0.00,10.00,Sunday
7,-1.3427583267346508
8,0.0
195,7.6822358046096
196,7.200930482518508
370,41.326375518838478
692,0.0
10,968.719248
595,164732.7553448647
644,0.0
698,0.0
2,1, 1, 1, 0, 4,10.00,20.00,Sunday
7,-1.376091660067984
8,0.0
195,7.6638622910669
196,7.18115038372268
370,41.35363900466802
692,0.0
10,968.719248
595,165197.60302254416
644,0.0
698,0.0
2,1, 1, 1, 0, 4,20.00,30.00,Sunday
7,-1.4094249934013173
8,0.0
195,7.645795129368741
196,7.162234334993987
370,41.388006468032369
692,0.0
10,968.719248
595,165668.92993915879
644,0.0
698,0.0
2,1, 1, 1, 0, 4,30.00,40.00,Sunday
7,-1.4427583267346507
8,0.0
195,7.62799834098312
196,7.143591024078908
370,41.430868767428957
692,0.0
10,968.719248
595,166143.6836220485
644,0.0
698,0.0
2,1, 1, 1, 0, 4,40.00,50.00,Sunday
7,-1.4760916600679839
8,0.0
195,7.610399950322071
196,7.125010642246595
370,41.48210434606133
692,0.0
10,968.719248
595,166619.61091041353
644,0.0
698,0.0
2,1, 1, 1, 0, 4,50.00,60.00,Sunday
7,-1.5094249934013174
8,0.0
195,7.59299968181497
196,7.106513589577641
370,41.541013158346519
692,0.0
10,968.719248
595,167095.44408599725
644,0.0
698,0.0
2,1, 1, 1, 0, 4, 0.00,60.00,Sunday
11,5812.315488
596,995458.0269250269
645,0.0
699,0.0
2,1, 1, 1, 0, 5, 0.00,10.00,Sunday
7,-1.6427583267346507
8,0.0
195,7.574572769086528
196,7.085533292360474
370,41.603455907338538
692,0.0
10,968.719248
595,167877.3948607459
644,0.0
698,0.0
2,1, 1, 1, 0, 5,10.00,20.00,Sunday
7,-1.776091660067984
8,0.0
195,7.5559765790589659
196,7.061998931986842
370,41.66507188371443
692,0.0
10,968.719248
595,168658.39206450375
644,0.0
698,0.0
2,1, 1, 1, 0, 5,20.00,30.00,Sunday
7,-1.9094249934013173
8,0.0
195,7.537119248013151
196,7.037168221950525
370,41.72046412103631
692,0.0
10,968.719248
595,169438.57085753227
644,0.0
698,0.0
2,1, 1, 1, 0, 5,30.00,40.00,Sunday
7,-2.0427583267346507
8,0.0
195,7.5180360669666419
196,7.012037638172978
370,41.766946041275229
692,0.0
10,968.719248
595,170218.10115541976
644,0.0
698,0.0
2,1, 1, 1, 0, 5,40.00,50.00,Sunday
7,-2.176091660067984
8,0.0
195,7.498873071363453
196,6.986961177555743
370,41.80413742728611
692,0.0
10,968.719248
595,170996.83673582373
644,0.0
698,0.0
2,1, 1, 1, 0, 5,50.00,60.00,Sunday
7,-2.309424993401317
8,0.0
195,7.479619649460916
196,6.961909107026084
370,41.83268301640426
692,0.0
10,968.719248
595,171774.77512543623
644,0.0
698,0.0
2,1, 1, 1, 0, 5, 0.00,60.00,Sunday
11,5812.315488
596,1018964.0707994616
645,0.0
699,0.0
2,1, 1, 1, 0, 6, 0.00,10.00,Sunday
7,-2.459424993401317
8,0.0
195,7.46022097131882
196,6.936428129259133
370,41.85259816948311
692,0.0
10,968.719248
595,172603.44622947378
644,0.0
698,0.0
2,1, 1, 1, 0, 6,10.00,20.00,Sunday
7,-2.6094249934013176
8,0.0
195,7.4406981525114
196,6.910486605944981
370,41.86352758757926
692,0.0
10,968.719248
595,173430.51440515024
644,0.0
698,0.0
2,1, 1, 1, 0, 6,20.00,30.00,Sunday
7,-2.7594249934013175
8,0.0
195,7.421067012112142
196,6.884293969028082
370,41.864943448759429
692,0.0
10,968.719248
595,174254.45390327113
644,0.0
698,0.0
2,1, 1, 1, 0, 6,30.00,40.00,Sunday
7,-2.909424993401317
8,0.0
195,7.401301602360996
196,6.858018587931061
370,41.856748200220668
692,0.0
10,968.719248
595,175074.2336817164
644,0.0
698,0.0
2,1, 1, 1, 0, 6,40.00,50.00,Sunday
7,-3.0594249934013177
8,0.0
195,7.381448263388601
196,6.831726744790002
370,41.83920477332165
692,0.0
10,968.719248
595,175889.33988618197
644,0.0
698,0.0
2,1, 1, 1, 0, 6,50.00,60.00,Sunday
7,-3.2094249934013177
8,0.0
195,7.3614801958477289
196,6.805416589234046
370,41.81274705499426
692,0.0
10,968.719248
595,176699.64915083099
644,0.0
698,0.0
2,1, 1, 1, 0, 6, 0.00,60.00,Sunday
11,5812.315488
596,1047951.6372566244
645,0.0
699,0.0
2,1, 1, 1, 0, 7, 0.00,10.00,Sunday
7,-3.142758326734651
8,0.0
195,7.344558047751112
196,6.785196321946924
370,41.779004473088388
692,0.0
10,968.719248
595,176831.08806617393
644,0.0
698,0.0
2,1, 1, 1, 0, 7,10.00,20.00,Sunday
7,-3.076091660067984
8,0.0
195,7.328609659771145
196,6.771103627295025
370,41.74454841659864
692,0.0
10,968.719248
595,176952.98706122963
644,0.0
698,0.0
2,1, 1, 1, 0, 7,20.00,30.00,Sunday
7,-3.0094249934013175
8,0.0
195,7.313606259284674
196,6.760162027325843
370,41.720764985190097
692,0.0
10,968.719248
595,177059.26852967454
644,0.0
698,0.0
2,1, 1, 1, 0, 7,30.00,40.00,Sunday
7,-2.942758326734651
8,0.0
195,7.2994293981798699
196,6.750115333115167
370,41.71367540015301
692,0.0
10,968.719248
595,177146.2356935369
644,0.0
698,0.0
2,1, 1, 1, 0, 7,40.00,50.00,Sunday
7,-2.876091660067984
8,0.0
195,7.285668614840993
196,6.7402065097069629
370,41.72421099654423
692,0.0
10,968.719248
595,177213.19877386109
644,0.0
698,0.0
2,1, 1, 1, 0, 7,50.00,60.00,Sunday
7,-2.809424993401317
8,0.0
195,7.2721205546832199
196,6.73054722205308
370,41.750941916626228
692,0.0
10,968.719248
595,177260.13882443287
644,0.0
698,0.0
2,1, 1, 1, 0, 7, 0.00,60.00,Sunday
11,5812.315488
596,1062462.916948909
645,0.0
699,0.0
2,1, 1, 1, 0, 8, 0.00,10.00,Sunday
7,-2.5594249934013177
8,0.0
195,7.260090815312455
196,6.725250922834102
370,41.77963161815069
692,0.0
10,968.719248
595,176711.64138348154
644,0.0
698,0.0
2,1, 1, 1, 0, 8,10.00,20.00,Sunday
7,-2.309424993401317
8,0.0
195,7.248630537933867
196,6.724709064618781
370,41.80901020367746
692,0.0
10,968.719248
595,176142.1284304054
644,0.0
698,0.0
2,1, 1, 1, 0, 8,20.00,30.00,Sunday
7,-2.059424993401317
8,0.0
195,7.238181448023885
196,6.726794547765614
370,41.84399499538507
692,0.0
10,968.719248
595,175555.96336712244
644,0.0
698,0.0
2,1, 1, 1, 0, 8,30.00,40.00,Sunday
7,-1.8094249934013174
8,0.0
195,7.22849306213311
196,6.729974797295712
370,41.887864098625879
692,0.0
10,968.719248
595,174952.3041383046
644,0.0
698,0.0
2,1, 1, 1, 0, 8,40.00,50.00,Sunday
7,-1.5594249934013174
8,0.0
195,7.219468387035371
196,6.7335577477070889
370,41.94153019076381
692,0.0
10,968.719248
595,174329.52507568326
644,0.0
698,0.0
2,1, 1, 1, 0, 8,50.00,60.00,Sunday
7,-1.3094249934013174
8,0.0
195,7.210934759346246
196,6.737689352601965
370,42.00352802126458
692,0.0
10,968.719248
595,173686.05011468245
644,0.0
698,0.0
2,1, 1, 1, 0, 8, 0.00,60.00,Sunday
11,5812.315488
596,1051377.6125096798
645,0.0
699,0.0
2,1, 1, 1, 0, 9, 0.00,10.00,Sunday
7,-1.2094249934013175
8,0.0
195,7.20169216150714
196,6.738643532540629
370,42.085676145057508
692,0.0
10,968.719248
595,173487.97080417499
644,0.0
698,0.0
2,1, 1, 1, 0, 9,10.00,20.00,Sunday
7,-1.1094249934013175
8,0.0
195,7.192392230677826
196,6.736256438428315
370,42.18245383771642
692,0.0
10,968.719248
595,173272.46062397873
644,0.0
698,0.0
2,1, 1, 1, 0, 9,20.00,30.00,Sunday
7,-1.0094249934013174
8,0.0
195,7.187547661759704
196,6.733922225169758
370,42.28326576325106
692,0.0
10,968.719248
595,173043.2847095646
644,0.0
698,0.0
2,1, 1, 1, 0, 9,30.00,40.00,Sunday
7,-0.9094249934013173
8,0.0
195,7.189839081227814
196,6.735914715585213
370,42.375378177490187
692,0.0
10,968.719248
595,172807.51574461923
644,0.0
698,0.0
2,1, 1, 1, 0, 9,40.00,50.00,Sunday
7,-0.8094249934013174
8,0.0
195,7.19501049826058
196,6.743144068989907
370,42.4559044384998
692,0.0
10,968.719248
595,172559.4148194115
644,0.0
698,0.0
2,1, 1, 1, 0, 9,50.00,60.00,Sunday
7,-0.7094249934013173
8,0.0
195,7.205656234328772
196,6.755191883340872
370,42.52582125599176
692,0.0
10,968.719248
595,172291.0664874041
644,0.0
698,0.0
2,1, 1, 1, 0, 9, 0.00,60.00,Sunday
11,5812.315488
596,1037461.713189153
645,0.0
699,0.0
2,1, 1, 1, 0,10, 0.00,10.00,Sunday
7,-0.676091660067984
8,0.0
195,7.21833327842854
196,6.769484121381664
370,42.58917394718001
692,0.0
10,968.719248
595,172189.87767867605
644,0.0
698,0.0
2,1, 1, 1, 0,10,10.00,20.00,Sunday
7,-0.6427583267346506
8,0.0
195,7.233746264698173
196,6.784989102612549
370,42.65432435175367
692,0.0
10,968.719248
595,172048.662710898
644,0.0
698,0.0
2,1, 1, 1, 0,10,20.00,30.00,Sunday
7,-0.6094249934013173
8,0.0
195,7.251029290356926
196,6.801846213887765
370,42.72091444250922
692,0.0
10,968.719248
595,171867.08126810377
644,0.0
698,0.0
2,1, 1, 1, 0,10,30.00,40.00,Sunday
7,-0.576091660067984
8,0.0
195,7.277578396693019
196,6.822851340669291
370,42.78048750835455
692,0.0
10,968.719248
595,171644.26415778287
644,0.0
698,0.0
2,1, 1, 1, 0,10,40.00,50.00,Sunday
7,-0.5427583267346506
8,0.0
195,7.307722898842675
196,6.848387761758654
370,42.831586877442
692,0.0
10,968.719248
595,171376.57900125104
644,0.0
698,0.0
2,1, 1, 1, 0,10,50.00,60.00,Sunday
7,-0.5094249934013173
8,0.0
195,7.342331669452304
196,6.878007540635812
370,42.87522643160324
692,0.0
10,968.719248
595,171054.14210811063
644,0.0
698,0.0
2,1, 1, 1, 0,10, 0.00,60.00,Sunday
11,5812.315488
596,1030180.6069248223
645,0.0
699,0.0
2,1, 1, 1, 0,11, 0.00,10.00,Sunday
7,-0.4094249934013173
8,0.0
195,7.381018649503977
196,6.91330755049285
370,42.90375735449151
692,0.0
10,968.719248
595,170469.3349940222
644,0.0
698,0.0
2,1, 1, 1, 0,11,10.00,20.00,Sunday
7,-0.30942499340131737
8,0.0
195,7.423480003357393
196,6.952256985254747
370,42.91921660179697
692,0.0
10,968.719248
595,169818.12571623573
644,0.0
698,0.0
2,1, 1, 1, 0,11,20.00,30.00,Sunday
7,-0.20942499340131733
8,0.0
195,7.468915155792493
196,6.99459137701085
370,42.92151764935528
692,0.0
10,968.719248
595,169095.05695474574
644,0.0
698,0.0
2,1, 1, 1, 0,11,30.00,40.00,Sunday
7,-0.10942499340131733
8,0.0
195,7.513695870223527
196,7.039726993231278
370,42.912349393728167
692,0.0
10,968.719248
595,168294.35394424364
644,0.0
698,0.0
2,1, 1, 1, 0,11,40.00,50.00,Sunday
7,-0.009424993401317276
8,0.0
195,7.559558954306605
196,7.086893521777536
370,42.89427769898124
692,0.0
10,968.719248
595,167418.94510649084
644,0.0
698,0.0
2,1, 1, 1, 0,11,50.00,60.00,Sunday
7,0.0905750065986827
8,0.0
195,7.608144840575631
196,7.136093583783876
370,42.86620791947427
692,0.0
10,968.719248
595,166471.91658605814
644,0.0
698,0.0
2,1, 1, 1, 0,11, 0.00,60.00,Sunday
11,5812.315488
596,1011567.7333017963
645,0.0
699,0.0
2,1, 1, 1, 0,12, 0.00,10.00,Sunday
7,0.20724167326534938
8,0.0
195,7.659761090147845
196,7.188316610145512
370,42.83456044159155
692,0.0
10,968.719248
595,165407.1582647636
644,0.0
698,0.0
2,1, 1, 1, 0,12,10.00,20.00,Sunday
7,0.32390833993201609
8,0.0
195,7.714196108798056
196,7.24398182832043
370,42.808203347083807
692,0.0
10,968.719248
595,164273.57078698663
644,0.0
698,0.0
2,1, 1, 1, 0,12,20.00,30.00,Sunday
7,0.4405750065986827
8,0.0
195,7.809572847981169
196,7.316285408580704
370,42.75056195896604
692,0.0
10,968.719248
595,163063.90954750347
644,0.0
698,0.0
2,1, 1, 1, 0,12,30.00,40.00,Sunday
7,0.5572416732653494
8,0.0
195,7.829424079099993
196,7.379675414811756
370,42.73599024184557
692,0.0
10,968.719248
595,161748.96143117618
644,0.0
698,0.0
2,1, 1, 1, 0,12,40.00,50.00,Sunday
7,0.673908339932016
8,0.0
195,7.875598919116436
196,7.430222031862269
370,42.77476449244435
692,0.0
10,968.719248
595,160337.40265430607
644,0.0
698,0.0
2,1, 1, 1, 0,12,50.00,60.00,Sunday
7,0.7905750065986827
8,0.0
195,7.919999779827482
196,7.475435024790172
370,42.8439270628997
692,0.0
10,968.719248
595,158885.83178316203
644,0.0
698,0.0
2,1, 1, 1, 0,12, 0.00,60.00,Sunday
11,5812.315488
596,973716.8344678979
645,0.0
699,0.0
2,1, 1, 1, 0,13, 0.00,10.00,Sunday
7,0.8239083399320161
8,0.0
195,7.9630516291445538
196,7.518302745286239
370,42.91583714295126
692,0.0
10,968.719248
595,157666.95764116199
644,0.0
698,0.0
2,1, 1, 1, 0,13,10.00,20.00,Sunday
7,0.8572416732653494
8,0.0
195,8.006265844180156
196,7.559943409734196
370,42.979098975670989
692,0.0
10,968.719248
595,156433.46249646593
644,0.0
698,0.0
2,1, 1, 1, 0,13,20.00,30.00,Sunday
7,0.8905750065986827
8,0.0
195,8.04929265556621
196,7.600864769074498
370,43.02928723333665
692,0.0
10,968.719248
595,155200.5602243691
644,0.0
698,0.0
2,1, 1, 1, 0,13,30.00,40.00,Sunday
7,0.923908339932016
8,0.0
195,8.299571397422808
196,7.722165462334311
370,42.829115560644627
692,0.0
10,968.719248
595,153959.0073567716
644,0.0
698,0.0
2,1, 1, 1, 0,13,40.00,50.00,Sunday
7,0.9572416732653494
8,0.0
195,8.49894797506414
196,7.927232147883433
370,42.37421562654441
692,0.0
10,968.719248
595,152559.61272301229
644,0.0
698,0.0
2,1, 1, 1, 0,13,50.00,60.00,Sunday
7,0.9905750065986828
8,0.0
195,8.786303661370578
196,8.205683638226333
370,41.70437401757023
692,0.0
10,968.719248
595,150819.60826931065
644,0.0
698,0.0
2,1, 1, 1, 0,13, 0.00,60.00,Sunday
11,5812.315488
596,926639.2087110916
645,0.0
699,0.0
2,1, 1, 1, 0,14, 0.00,10.00,Sunday
7,1.0572416732653494
8,0.0
195,9.05302739818673
196,8.386227586937534
370,41.22432703862239
692,0.0
10,968.719248
595,148567.53631947033
644,0.0
698,0.0
2,1, 1, 1, 0,14,10.00,20.00,Sunday
7,1.123908339932016
8,0.0
195,9.39276148463643
196,8.825935573641234
370,40.12763971044133
692,0.0
10,968.719248
595,145909.6859682761
644,0.0
698,0.0
2,1, 1, 1, 0,14,20.00,30.00,Sunday
7,1.1905750065986827
8,0.0
195,9.71712274973499
196,9.239857423843262
370,39.127162650591689
692,0.0
10,968.719248
595,142906.33057598398
644,0.0
698,0.0
2,1, 1, 1, 0,14,30.00,40.00,Sunday
7,1.2572416732653494
8,0.0
195,9.925316379319025
196,9.573256600684001
370,38.35690818866191
692,0.0
10,968.719248
595,139657.4172122756
644,0.0
698,0.0
2,1, 1, 1, 0,14,40.00,50.00,Sunday
7,1.3239083399320162
8,0.0
195,10.111635809036212
196,9.813971481603013
370,37.83386589042688
692,0.0
10,968.719248
595,136438.4239251208
644,0.0
698,0.0
2,1, 1, 1, 0,14,50.00,60.00,Sunday
7,1.3905750065986827
8,0.0
195,10.256324745448595
196,9.991759274986333
370,37.472522818179808
692,0.0
10,968.719248
595,133919.31118496823
644,0.0
698,0.0
2,1, 1, 1, 0,14, 0.00,60.00,Sunday
11,5812.315488
596,847398.705186095
645,0.0
699,0.0
2,1, 1, 1, 0,15, 0.00,10.00,Sunday
7,1.473908339932016
8,0.0
195,10.393978044152611
196,10.135243819851328
370,37.19394915850292
692,0.0
10,968.719248
595,130108.51569166561
644,0.0
698,0.0
2,1, 1, 1, 0,15,10.00,20.00,Sunday
7,1.5572416732653494
8,0.0
195,10.508564919893658
196,10.258564056709933
370,36.96160174599961
692,0.0
10,968.719248
595,126374.64514351786
644,0.0
698,0.0
2,1, 1, 1, 0,15,20.00,30.00,Sunday
7,1.6405750065986827
8,0.0
195,10.613790167523917
196,10.36735724763806
370,36.76060630898534
692,0.0
10,968.719248
595,122670.71167324634
644,0.0
698,0.0
2,1, 1, 1, 0,15,30.00,40.00,Sunday
7,1.723908339932016
8,0.0
195,10.659065371469414
196,10.440764151555863
370,36.64154779185883
692,0.0
10,968.719248
595,119059.91825854742
644,0.0
698,0.0
2,1, 1, 1, 0,15,40.00,50.00,Sunday
7,1.8072416732653492
8,0.0
195,10.690236301576404
196,10.475344941396797
370,36.61212578301619
692,0.0
10,968.719248
595,115617.16652768839
644,0.0
698,0.0
2,1, 1, 1, 0,15,50.00,60.00,Sunday
7,1.8905750065986827
8,0.0
195,10.694532440585118
196,10.4766457308306
370,36.65868889661109
692,0.0
10,968.719248
595,112435.54896503684
644,0.0
698,0.0
2,1, 1, 1, 0,15, 0.00,60.00,Sunday
11,5812.315488
596,726266.5062597025
645,0.0
699,0.0
2,1, 1, 1, 0,16, 0.00,10.00,Sunday
7,1.873908339932016
8,0.0
195,10.686102071757479
196,10.4503112114385
370,36.76775946156983
692,0.0
10,968.719248
595,109841.94637310013
644,0.0
698,0.0
2,1, 1, 1, 0,16,10.00,20.00,Sunday
7,1.8572416732653495
8,0.0
195,10.658498412766053
196,10.406837435481873
370,36.910662469587908
692,0.0
10,968.719248
595,107568.91667264172
644,0.0
698,0.0
2,1, 1, 1, 0,16,20.00,30.00,Sunday
7,1.8405750065986828
8,0.0
195,10.620836778008249
196,10.352583100781251
370,37.07200868319077
692,0.0
10,968.719248
595,105625.92884346588
644,0.0
698,0.0
2,1, 1, 1, 0,16,30.00,40.00,Sunday
7,1.8239083399320162
8,0.0
195,10.546763447178236
196,10.278589382849498
370,37.27480791579772
692,0.0
10,968.719248
595,104037.24828796386
644,0.0
698,0.0
2,1, 1, 1, 0,16,40.00,50.00,Sunday
7,1.8072416732653494
8,0.0
195,10.461080018853034
196,10.18261783445832
370,37.525958722138749
692,0.0
10,968.719248
595,102796.73816709075
644,0.0
698,0.0
2,1, 1, 1, 0,16,50.00,60.00,Sunday
7,1.7905750065986828
8,0.0
195,10.359616535604149
196,10.065201324417874
370,37.82568141430261
692,0.0
10,968.719248
595,101903.76198964186
644,0.0
698,0.0
2,1, 1, 1, 0,16, 0.00,60.00,Sunday
11,5812.315488
596,631774.5403339042
645,0.0
699,0.0
2,1, 1, 1, 0,17, 0.00,10.00,Sunday
7,1.623908339932016
8,0.0
195,10.217565075796447
196,9.921352769432105
370,38.19109826281763
692,0.0
10,968.719248
595,101783.31998458764
644,0.0
698,0.0
2,1, 1, 1, 0,17,10.00,20.00,Sunday
7,1.4572416732653495
8,0.0
195,10.08363290803259
196,9.76278455139751
370,38.598426682518617
692,0.0
10,968.719248
595,101968.23272150668
644,0.0
698,0.0
2,1, 1, 1, 0,17,20.00,30.00,Sunday
7,1.2905750065986828
8,0.0
195,9.936248929387869
196,9.600002631789995
370,39.022230622831717
692,0.0
10,968.719248
595,102408.32557402012
644,0.0
698,0.0
2,1, 1, 1, 0,17,30.00,40.00,Sunday
7,1.123908339932016
8,0.0
195,9.829272805901331
196,9.4515437461656
370,39.413556856684227
692,0.0
10,968.719248
595,103052.65233274286
644,0.0
698,0.0
2,1, 1, 1, 0,17,40.00,50.00,Sunday
7,0.9572416732653494
8,0.0
195,9.726483516299695
196,9.321577936615109
370,39.75957368362473
692,0.0
10,968.719248
595,103804.82614664042
644,0.0
698,0.0
2,1, 1, 1, 0,17,50.00,60.00,Sunday
7,0.7905750065986827
8,0.0
195,9.574054199572526
196,9.186464788287433
370,40.12236666168478
692,0.0
10,968.719248
595,104560.03971214034
644,0.0
698,0.0
2,1, 1, 1, 0,17, 0.00,60.00,Sunday
11,5812.315488
596,617577.396471638
645,0.0
699,0.0
2,1, 1, 1, 0,18, 0.00,10.00,Sunday
7,0.4739083399320161
8,0.0
195,9.489636589047827
196,9.053943234315865
370,40.483428336074258
692,0.0
10,968.719248
595,105535.8556805997
644,0.0
698,0.0
2,1, 1, 1, 0,18,10.00,20.00,Sunday
7,0.15724167326534944
8,0.0
195,9.412163632581386
196,8.938505435578812
370,40.80022426707986
692,0.0
10,968.719248
595,107135.21000087005
644,0.0
698,0.0
2,1, 1, 1, 0,18,20.00,30.00,Sunday
7,-0.15942499340131734
8,0.0
195,9.337194111766424
196,8.84010326799786
370,41.06902900249972
692,0.0
10,968.719248
595,109085.25313617946
644,0.0
698,0.0
2,1, 1, 1, 0,18,30.00,40.00,Sunday
7,-0.476091660067984
8,0.0
195,9.269806110783094
196,8.752855882727499
370,41.30141073522925
692,0.0
10,968.719248
595,111220.66158977752
644,0.0
698,0.0
2,1, 1, 1, 0,18,40.00,50.00,Sunday
7,-0.7927583267346507
8,0.0
195,9.20477262279052
196,8.67135686246214
370,41.50961900127159
692,0.0
10,968.719248
595,113481.61392108744
644,0.0
698,0.0
2,1, 1, 1, 0,18,50.00,60.00,Sunday
7,-1.1094249934013175
8,0.0
195,9.144098332808167
196,8.593385530601726
370,41.69851660474129
692,0.0
10,968.719248
595,115835.34737162516
644,0.0
698,0.0
2,1, 1, 1, 0,18, 0.00,60.00,Sunday
11,5812.315488
596,662293.9417001393
645,0.0
699,0.0
2,1, 1, 1, 0,19, 0.00,10.00,Sunday
7,-1.176091660067984
8,0.0
195,9.086441008304084
196,8.524023722020795
370,41.858963954023099
692,0.0
10,968.719248
595,117480.96417273693
644,0.0
698,0.0
2,1, 1, 1, 0,19,10.00,20.00,Sunday
7,-1.2427583267346508
8,0.0
195,9.032042187929119
196,8.463544008812843
370,41.992436263896497
692,0.0
10,968.719248
595,119164.63323000501
644,0.0
698,0.0
2,1, 1, 1, 0,19,20.00,30.00,Sunday
7,-1.3094249934013174
8,0.0
195,8.979605334554318
196,8.408693276879044
370,42.10917980678563
692,0.0
10,968.719248
595,120855.32311307878
644,0.0
698,0.0
2,1, 1, 1, 0,19,30.00,40.00,Sunday
7,-1.376091660067984
8,0.0
195,8.929819758236974
196,8.356733511589767
370,42.217066495568129
692,0.0
10,968.719248
595,122535.92219243094
644,0.0
698,0.0
2,1, 1, 1, 0,19,40.00,50.00,Sunday
7,-1.4427583267346507
8,0.0
195,8.881359225281108
196,8.306396692539954
370,42.319564000380477
692,0.0
10,968.719248
595,124193.22730070116
644,0.0
698,0.0
2,1, 1, 1, 0,19,50.00,60.00,Sunday
7,-1.5094249934013174
8,0.0
195,8.834663830089312
196,8.257520506540225
370,42.41700533340912
692,0.0
10,968.719248
595,125823.78328874249
644,0.0
698,0.0
2,1, 1, 1, 0,19, 0.00,60.00,Sunday
11,5812.315488
596,730053.8532976954
645,0.0
699,0.0
2,1, 1, 1, 0,20, 0.00,10.00,Sunday
7,-1.6760916600679839
8,0.0
195,8.789111721637859
196,8.208119220717137
370,42.49897635970964
692,0.0
10,968.719248
595,127731.39937943703
644,0.0
698,0.0
2,1, 1, 1, 0,20,10.00,20.00,Sunday
7,-1.8427583267346506
8,0.0
195,8.744717853921108
196,8.158104725756259
370,42.55969669479299
692,0.0
10,968.719248
595,129614.27241302646
644,0.0
698,0.0
2,1, 1, 1, 0,20,20.00,30.00,Sunday
7,-2.0094249934013175
8,0.0
195,8.700936876991096
196,8.108308180771536
370,42.594844603371807
692,0.0
10,968.719248
595,131478.39539303498
644,0.0
698,0.0
2,1, 1, 1, 0,20,30.00,40.00,Sunday
7,-2.176091660067984
8,0.0
195,8.657998865026805
196,8.059372136236356
370,42.60355758947983
692,0.0
10,968.719248
595,133330.197310384
644,0.0
698,0.0
2,1, 1, 1, 0,20,40.00,50.00,Sunday
7,-2.342758326734651
8,0.0
195,8.615685278061365
196,8.01141779581964
370,42.58716321476062
692,0.0
10,968.719248
595,135171.9548525368
644,0.0
698,0.0
2,1, 1, 1, 0,20,50.00,60.00,Sunday
7,-2.5094249934013175
8,0.0
195,8.573971767790415
196,7.964387162965861
370,42.54736707294416
692,0.0
10,968.719248
595,137005.6626712648
644,0.0
698,0.0
2,1, 1, 1, 0,20, 0.00,60.00,Sunday
11,5812.315488
596,794331.8820196841
645,0.0
699,0.0
2,1, 1, 1, 0,21, 0.00,10.00,Sunday
7,-2.5594249934013177
8,0.0
195,8.534642336907688
196,7.921144360333231
370,42.4921400430594
692,0.0
10,968.719248
595,138463.24183346344
644,0.0
698,0.0
2,1, 1, 1, 0,21,10.00,20.00,Sunday
7,-2.6094249934013176
8,0.0
195,8.4958475658566
196,7.881474834597608
370,42.431732667315319
692,0.0
10,968.719248
595,139905.24628486375
644,0.0
698,0.0
2,1, 1, 1, 0,21,20.00,30.00,Sunday
7,-2.659424993401317
8,0.0
195,8.458926401983553
196,7.8441725680793878
370,42.37275487733261
692,0.0
10,968.719248
595,141334.89539341056
644,0.0
698,0.0
2,1, 1, 1, 0,21,30.00,40.00,Sunday
7,-2.7094249934013177
8,0.0
195,8.422520720164299
196,7.807921561538286
370,42.318968556688748
692,0.0
10,968.719248
595,142762.96547884157
644,0.0
698,0.0
2,1, 1, 1, 0,21,40.00,50.00,Sunday
7,-2.7594249934013175
8,0.0
195,8.386780221655613
196,7.772203282518531
370,42.271061507676268
692,0.0
10,968.719248
595,144194.8025317821
644,0.0
698,0.0
2,1, 1, 1, 0,21,50.00,60.00,Sunday
7,-2.809424993401317
8,0.0
195,8.351721470840888
196,7.73702418146363
370,42.22831620630752
692,0.0
10,968.719248
595,145627.82451984834
644,0.0
698,0.0
2,1, 1, 1, 0,21, 0.00,60.00,Sunday
11,5812.315488
596,852288.9760422097
645,0.0
699,0.0
2,1, 1, 1, 0,22, 0.00,10.00,Sunday
7,-2.8594249934013176
8,0.0
195,8.316662242021512
196,7.702263586580073
370,42.19183488167842
692,0.0
10,968.719248
595,147059.1653737368
644,0.0
698,0.0
2,1, 1, 1, 0,22,10.00,20.00,Sunday
7,-2.909424993401317
8,0.0
195,8.282156761320004
196,7.667947169534664
370,42.156462774244328
692,0.0
10,968.719248
595,148478.06188202898
644,0.0
698,0.0
2,1, 1, 1, 0,22,20.00,30.00,Sunday
7,-2.9594249934013177
8,0.0
195,8.248109845797737
196,7.634111840815389
370,42.121481458682008
692,0.0
10,968.719248
595,149875.0545953374
644,0.0
698,0.0
2,1, 1, 1, 0,22,30.00,40.00,Sunday
7,-3.0094249934013175
8,0.0
195,8.214556378916882
196,7.600764087820029
370,42.08673254109896
692,0.0
10,968.719248
595,151244.64604923342
644,0.0
698,0.0
2,1, 1, 1, 0,22,40.00,50.00,Sunday
7,-3.059424993401317
8,0.0
195,8.18144771681571
196,7.567878182400748
370,42.05226769058769
692,0.0
10,968.719248
595,152583.49633767317
644,0.0
698,0.0
2,1, 1, 1, 0,22,50.00,60.00,Sunday
7,-3.1094249934013176
8,0.0
195,8.148807642044546
196,7.535430188481285
370,42.01811825216221
692,0.0
10,968.719248
595,153890.66373645477
644,0.0
698,0.0
2,1, 1, 1, 0,22, 0.00,60.00,Sunday
11,5812.315488
596,903131.0879744645
645,0.0
699,0.0
2,1, 1, 1, 0,23, 0.00,10.00,Sunday
7,-3.1427583267346508
8,0.0
195,8.116804524779667
196,7.503865835574765
370,41.98198611049024
692,0.0
10,968.719248
595,155110.75731553656
644,0.0
698,0.0
2,1, 1, 1, 0,23,10.00,20.00,Sunday
7,-3.1760916600679844
8,0.0
195,8.08484684870252
196,7.473002793023907
370,41.94783625089495
692,0.0
10,968.719248
595,156297.83223618446
644,0.0
698,0.0
2,1, 1, 1, 0,23,20.00,30.00,Sunday
7,-3.2094249934013177
8,0.0