Program Version,EnergyPlus, Version 9.4.0-998c4b761e, YMD=2022.03.18 15:09
1,5,Environment Title[],Latitude[deg],Longitude[deg],Time Zone[],Elevation[m]
2,8,Day of Simulation[],Month[],Day of Month[],DST Indicator[1=yes 0=no],Hour[],StartMinute[],EndMinute[],DayType
3,5,Cumulative Day of Simulation[],Month[],Day of Month[],DST Indicator[1=yes 0=no],DayType  ! When Daily Meters Requested
4,2,Cumulative Days of Simulation[],Month[]  ! When Monthly Meters Requested
5,1,Cumulative Days of Simulation[] ! When Run Period Meters Requested
6,1,Calendar Year of Simulation[] ! When Annual Meters Requested
11,1,Electricity:Facility [J] !Hourly
645,1,DistrictCooling:Facility [J] !Hourly
596,1,DistrictHeating:Facility [J] !Hourly
699,1,Carbon Equivalent:Facility [kg] !Hourly
12,7,Electricity:Facility [J] !Daily [Value,Min,Hour,Minute,Max,Hour,Minute]
646,7,DistrictCooling:Facility [J] !Daily [Value,Min,Hour,Minute,Max,Hour,Minute]
597,7,DistrictHeating:Facility [J] !Daily [Value,Min,Hour,Minute,Max,Hour,Minute]
700,7,Carbon Equivalent:Facility [kg] !Daily [Value,Min,Hour,Minute,Max,Hour,Minute]
13,9,Electricity:Facility [J] !Monthly [Value,Min,Day,Hour,Minute,Max,Day,Hour,Minute]
647,9,DistrictCooling:Facility [J] !Monthly [Value,Min,Day,Hour,Minute,Max,Day,Hour,Minute]
598,9,DistrictHeating:Facility [J] !Monthly [Value,Min,Day,Hour,Minute,Max,Day,Hour,Minute]
701,9,Carbon Equivalent:Facility [kg] !Monthly [Value,Min,Day,Hour,Minute,Max,Day,Hour,Minute]
15,11,Electricity:Facility [J] !RunPeriod [Value,Min,Month,Day,Hour,Minute,Max,Month,Day,Hour,Minute]
649,11,DistrictCooling:Facility [J] !RunPeriod [Value,Min,Month,Day,Hour,Minute,Max,Month,Day,Hour,Minute]
600,11,DistrictHeating:Facility [J] !RunPeriod [Value,Min,Month,Day,Hour,Minute,Max,Month,Day,Hour,Minute]
703,11,Carbon Equivalent:Facility [kg] !RunPeriod [Value,Min,Month,Day,Hour,Minute,Max,Month,Day,Hour,Minute]
10,1,Electricity:Facility [J] !TimeStep
644,1,DistrictCooling:Facility [J] !TimeStep
595,1,DistrictHeating:Facility [J] !TimeStep
698,1,Carbon Equivalent:Facility [kg] !TimeStep
End of Data Dictionary
1,FRIBOURG (O1-O1:31-12),  46.24,   6.11,   1.00, 430.10
2,1, 1, 1, 0, 1, 0.00,10.00,Sunday
10,968.719248
595,162031.00390780733
644,0.0
698,0.0
2,1, 1, 1, 0, 1,10.00,20.00,Sunday
10,968.719248
595,161187.1741657033
644,0.0
698,0.0
2,1, 1, 1, 0, 1,20.00,30.00,Sunday
10,968.719248
595,160298.10574913573
644,0.0
698,0.0
2,1, 1, 1, 0, 1,30.00,40.00,Sunday
10,968.719248
595,159348.1352655621
644,0.0
698,0.0
2,1, 1, 1, 0, 1,40.00,50.00,Sunday
10,968.719248
595,158331.00901631625
644,0.0
698,0.0
2,1, 1, 1, 0, 1,50.00,60.00,Sunday
10,968.719248
595,157241.1881144446
644,0.0
698,0.0
2,1, 1, 1, 0, 1, 0.00,60.00,Sunday
11,5812.315488
596,958436.6162189694
645,0.0
699,0.0
2,1, 1, 1, 0, 2, 0.00,10.00,Sunday
10,968.719248
595,157883.57117456877
644,0.0
698,0.0
2,1, 1, 1, 0, 2,10.00,20.00,Sunday
10,968.719248
595,158461.17773891099
644,0.0
698,0.0
2,1, 1, 1, 0, 2,20.00,30.00,Sunday
10,968.719248
595,159002.2938506917
644,0.0
698,0.0
2,1, 1, 1, 0, 2,30.00,40.00,Sunday
10,968.719248
595,159525.1240780597
644,0.0
698,0.0
2,1, 1, 1, 0, 2,40.00,50.00,Sunday
10,968.719248
595,160039.5478666207
644,0.0
698,0.0
2,1, 1, 1, 0, 2,50.00,60.00,Sunday
10,968.719248
595,160547.91627051767
644,0.0
698,0.0
2,1, 1, 1, 0, 2, 0.00,60.00,Sunday
11,5812.315488
596,955459.6309793695
645,0.0
699,0.0
2,1, 1, 1, 0, 3, 0.00,10.00,Sunday
10,968.719248
595,161154.36980299347
644,0.0
698,0.0
2,1, 1, 1, 0, 3,10.00,20.00,Sunday
10,968.719248
595,161759.9125823457
644,0.0
698,0.0
2,1, 1, 1, 0, 3,20.00,30.00,Sunday
10,968.719248
595,162371.60874356223
644,0.0
698,0.0
2,1, 1, 1, 0, 3,30.00,40.00,Sunday
10,968.719248
595,162993.96616071673
644,0.0
698,0.0
2,1, 1, 1, 0, 3,40.00,50.00,Sunday
10,968.719248
595,163629.3962538881
644,0.0
698,0.0
2,1, 1, 1, 0, 3,50.00,60.00,Sunday
10,968.719248
595,164278.47427224354
644,0.0
698,0.0
2,1, 1, 1, 0, 3, 0.00,60.00,Sunday
11,5812.315488
596,976187.7278157497
645,0.0
699,0.0
2,1, 1, 1, 0, 4, 0.00,10.00,Sunday
10,968.719248
595,164732.7553448647
644,0.0
698,0.0
2,1, 1, 1, 0, 4,10.00,20.00,Sunday
10,968.719248
595,165197.60302254416
644,0.0
698,0.0
2,1, 1, 1, 0, 4,20.00,30.00,Sunday
10,968.719248
595,165668.92993915879
644,0.0
698,0.0
2,1, 1, 1, 0, 4,30.00,40.00,Sunday
10,968.719248
595,166143.6836220485
644,0.0
698,0.0
2,1, 1, 1, 0, 4,40.00,50.00,Sunday
10,968.719248
595,166619.61091041353
644,0.0
698,0.0
2,1, 1, 1, 0, 4,50.00,60.00,Sunday
10,968.719248
595,167095.44408599725
644,0.0
698,0.0
2,1, 1, 1, 0, 4, 0.00,60.00,Sunday
11,5812.315488
596,995458.0269250269
645,0.0
699,0.0
2,1, 1, 1, 0, 5, 0.00,10.00,Sunday
10,968.719248
595,167877.3948607459
644,0.0
698,0.0
2,1, 1, 1, 0, 5,10.00,20.00,Sunday
10,968.719248
595,168658.39206450375
644,0.0
698,0.0
2,1, 1, 1, 0, 5,20.00,30.00,Sunday
10,968.719248
595,169438.57085753227
644,0.0
698,0.0
2,1, 1, 1, 0, 5,30.00,40.00,Sunday
10,968.719248
595,170218.10115541976
644,0.0
698,0.0
2,1, 1, 1, 0, 5,40.00,50.00,Sunday
10,968.719248
595,170996.83673582373
644,0.0
698,0.0
2,1, 1, 1, 0, 5,50.00,60.00,Sunday
10,968.719248
595,171774.77512543623
644,0.0
698,0.0
2,1, 1, 1, 0, 5, 0.00,60.00,Sunday
11,5812.315488
596,1018964.0707994616
645,0.0
699,0.0
2,1, 1, 1, 0, 6, 0.00,10.00,Sunday
10,968.719248
595,172603.44622947378
644,0.0
698,0.0
2,1, 1, 1, 0, 6,10.00,20.00,Sunday
10,968.719248
595,173430.51440515024
644,0.0
698,0.0
2,1, 1, 1, 0, 6,20.00,30.00,Sunday
10,968.719248
595,174254.45390327113
644,0.0
698,0.0
2,1, 1, 1, 0, 6,30.00,40.00,Sunday
10,968.719248
595,175074.2336817164
644,0.0
698,0.0
2,1, 1, 1, 0, 6,40.00,50.00,Sunday
10,968.719248
595,175889.33988618197
644,0.0
698,0.0
2,1, 1, 1, 0, 6,50.00,60.00,Sunday
10,968.719248
595,176699.64915083099
644,0.0
698,0.0
2,1, 1, 1, 0, 6, 0.00,60.00,Sunday
11,5812.315488
596,1047951.6372566244
645,0.0
699,0.0
2,1, 1, 1, 0, 7, 0.00,10.00,Sunday
10,968.719248
595,176831.08806617393
644,0.0
698,0.0
2,1, 1, 1, 0, 7,10.00,20.00,Sunday
10,968.719248
595,176952.98706122963
644,0.0
698,0.0
2,1, 1, 1, 0, 7,20.00,30.00,Sunday
10,968.719248
595,177059.26852967454
644,0.0
698,0.0
2,1, 1, 1, 0, 7,30.00,40.00,Sunday
10,968.719248
595,177146.2356935369
644,0.0
698,0.0
2,1, 1, 1, 0, 7,40.00,50.00,Sunday
10,968.719248
595,177213.19877386109
644,0.0
698,0.0
2,1, 1, 1, 0, 7,50.00,60.00,Sunday
10,968.719248
595,177260.13882443287
644,0.0
698,0.0
2,1, 1, 1, 0, 7, 0.00,60.00,Sunday
11,5812.315488
596,1062462.916948909
645,0.0
699,0.0
2,1, 1, 1, 0, 8, 0.00,10.00,Sunday
10,968.719248
595,176711.64138348154
644,0.0
698,0.0
2,1, 1, 1, 0, 8,10.00,20.00,Sunday
10,968.719248
595,176142.1284304054
644,0.0
698,0.0
2,1, 1, 1, 0, 8,20.00,30.00,Sunday
10,968.719248
595,175555.96336712244
644,0.0
698,0.0
2,1, 1, 1, 0, 8,30.00,40.00,Sunday
10,968.719248
595,174952.3041383046
644,0.0
698,0.0
2,1, 1, 1, 0, 8,40.00,50.00,Sunday
10,968.719248
595,174329.52507568326
644,0.0
698,0.0
2,1, 1, 1, 0, 8,50.00,60.00,Sunday
10,968.719248
595,173686.05011468245
644,0.0
698,0.0
2,1, 1, 1, 0, 8, 0.00,60.00,Sunday
11,5812.315488
596,1051377.6125096798
645,0.0
699,0.0
2,1, 1, 1, 0, 9, 0.00,10.00,Sunday
10,968.719248
595,173487.97080417499
644,0.0
698,0.0
2,1, 1, 1, 0, 9,10.00,20.00,Sunday
10,968.719248
595,173272.46062397873
644,0.0
698,0.0
2,1, 1, 1, 0, 9,20.00,30.00,Sunday
10,968.719248
595,173043.2847095646
644,0.0
698,0.0
2,1, 1, 1, 0, 9,30.00,40.00,Sunday
10,968.719248
595,172807.51574461923
644,0.0
698,0.0
2,1, 1, 1, 0, 9,40.00,50.00,Sunday
10,968.719248
595,172559.4148194115
644,0.0
698,0.0
2,1, 1, 1, 0, 9,50.00,60.00,Sunday
10,968.719248
595,172291.0664874041
644,0.0
698,0.0
2,1, 1, 1, 0, 9, 0.00,60.00,Sunday
11,5812.315488
596,1037461.713189153
645,0.0
699,0.0
2,1, 1, 1, 0,10, 0.00,10.00,Sunday
10,968.719248
595,172189.87767867605
644,0.0
698,0.0
2,1, 1, 1, 0,10,10.00,20.00,Sunday
10,968.719248
595,172048.662710898
644,0.0
698,0.0
2,1, 1, 1, 0,10,20.00,30.00,Sunday
10,968.719248
595,171867.08126810377
644,0.0
698,0.0
2,1, 1, 1, 0,10,30.00,40.00,Sunday
10,968.719248
595,171644.26415778287
644,0.0
698,0.0
2,1, 1, 1, 0,10,40.00,50.00,Sunday
10,968.719248
595,171376.57900125104
644,0.0
698,0.0
2,1, 1, 1, 0,10,50.00,60.00,Sunday
10,968.719248
595,171054.14210811063
644,0.0
698,0.0
2,1, 1, 1, 0,10, 0.00,60.00,Sunday
11,5812.315488
596,1030180.6069248223
645,0.0
699,0.0
2,1, 1, 1, 0,11, 0.00,10.00,Sunday
10,968.719248
595,170469.3349940222
644,0.0
698,0.0
2,1, 1, 1, 0,11,10.00,20.00,Sunday
10,968.719248
595,169818.12571623573
644,0.0
698,0.0
2,1, 1, 1, 0,11,20.00,30.00,Sunday
10,968.719248
595,169095.05695474574
644,0.0
698,0.0
2,1, 1, 1, 0,11,30.00,40.00,Sunday
10,968.719248
595,168294.35394424364
644,0.0
698,0.0
2,1, 1, 1, 0,11,40.00,50.00,Sunday
10,968.719248
595,167418.94510649084
644,0.0
698,0.0
2,1, 1, 1, 0,11,50.00,60.00,Sunday
10,968.719248
595,166471.91658605814
644,0.0
698,0.0
2,1, 1, 1, 0,11, 0.00,60.00,Sunday
11,5812.315488
596,1011567.7333017963
645,0.0
699,0.0
2,1, 1, 1, 0,12, 0.00,10.00,Sunday
10,968.719248
595,165407.1582647636
644,0.0
698,0.0
2,1, 1, 1, 0,12,10.00,20.00,Sunday
10,968.719248
595,164273.57078698663
644,0.0
698,0.0
2,1, 1, 1, 0,12,20.00,30.00,Sunday
10,968.719248
595,163063.90954750347
644,0.0
698,0.0
2,1, 1, 1, 0,12,30.00,40.00,Sunday
10,968.719248
595,161748.96143117618
644,0.0
698,0.0
2,1, 1, 1, 0,12,40.00,50.00,Sunday
10,968.719248
595,160337.40265430607
644,0.0
698,0.0
2,1, 1, 1, 0,12,50.00,60.00,Sunday
10,968.719248
595,158885.83178316203
644,0.0
698,0.0
2,1, 1, 1, 0,12, 0.00,60.00,Sunday
11,5812.315488
596,973716.8344678979
645,0.0
699,0.0
2,1, 1, 1, 0,13, 0.00,10.00,Sunday
10,968.719248
595,157666.95764116199
644,0.0
698,0.0
2,1, 1, 1, 0,13,10.00,20.00,Sunday
10,968.719248
595,156433.46249646593
644,0.0
698,0.0
2,1, 1, 1, 0,13,20.00,30.00,Sunday
10,968.719248
595,155200.5602243691
644,0.0
698,0.0
2,1, 1, 1, 0,13,30.00,40.00,Sunday
10,968.719248
595,153959.0073567716
644,0.0
698,0.0
2,1, 1, 1, 0,13,40.00,50.00,Sunday
10,968.719248
595,152559.61272301229
644,0.0
698,0.0
2,1, 1, 1, 0,13,50.00,60.00,Sunday
10,968.719248
595,150819.60826931065
644,0.0
698,0.0
2,1, 1, 1, 0,13, 0.00,60.00,Sunday
11,5812.315488
596,926639.2087110916
645,0.0
699,0.0
2,1, 1, 1, 0,14, 0.00,10.00,Sunday
10,968.719248
595,148567.53631947033
644,0.0
698,0.0
2,1, 1, 1, 0,14,10.00,20.00,Sunday
10,968.719248
595,145909.6859682761
644,0.0
698,0.0
2,1, 1, 1, 0,14,20.00,30.00,Sunday
10,968.719248
595,142906.33057598398
644,0.0
698,0.0
2,1, 1, 1, 0,14,30.00,40.00,Sunday
10,968.719248
595,139657.4172122756
644,0.0
698,0.0
2,1, 1, 1, 0,14,40.00,50.00,Sunday
10,968.719248
595,136438.4239251208
644,0.0
698,0.0
2,1, 1, 1, 0,14,50.00,60.00,Sunday
10,968.719248
595,133919.31118496823
644,0.0
698,0.0
2,1, 1, 1, 0,14, 0.00,60.00,Sunday
11,5812.315488
596,847398.705186095
645,0.0
699,0.0
2,1, 1, 1, 0,15, 0.00,10.00,Sunday
10,968.719248
595,130108.51569166561
644,0.0
698,0.0
2,1, 1, 1, 0,15,10.00,20.00,Sunday
10,968.719248
595,126374.64514351786
644,0.0
698,0.0
2,1, 1, 1, 0,15,20.00,30.00,Sunday
10,968.719248
595,122670.71167324634
644,0.0
698,0.0
2,1, 1, 1, 0,15,30.00,40.00,Sunday
10,968.719248
595,119059.91825854742
644,0.0
698,0.0
2,1, 1, 1, 0,15,40.00,50.00,Sunday
10,968.719248
595,115617.16652768839
644,0.0
698,0.0
2,1, 1, 1, 0,15,50.00,60.00,Sunday
10,968.719248
595,112435.54896503684
644,0.0
698,0.0
2,1, 1, 1, 0,15, 0.00,60.00,Sunday
11,5812.315488
596,726266.5062597025
645,0.0
699,0.0
2,1, 1, 1, 0,16, 0.00,10.00,Sunday
10,968.719248
595,109841.94637310013
644,0.0
698,0.0
2,1, 1, 1, 0,16,10.00,20.00,Sunday
10,968.719248
595,107568.91667264172
644,0.0
698,0.0
2,1, 1, 1, 0,16,20.00,30.00,Sunday
10,968.719248
595,105625.92884346588
644,0.0
698,0.0
2,1, 1, 1, 0,16,30.00,40.00,Sunday
10,968.719248
595,104037.24828796386
644,0.0
698,0.0
2,1, 1, 1, 0,16,40.00,50.00,Sunday
10,968.719248
595,102796.73816709075
644,0.0
698,0.0
2,1, 1, 1, 0,16,50.00,60.00,Sunday
10,968.719248
595,101903.76198964186
644,0.0
698,0.0
2,1, 1, 1, 0,16, 0.00,60.00,Sunday
11,5812.315488
596,631774.5403339042
645,0.0
699,0.0
2,1, 1, 1, 0,17, 0.00,10.00,Sunday
10,968.719248
595,101783.31998458764
644,0.0
698,0.0
2,1, 1, 1, 0,17,10.00,20.00,Sunday
10,968.719248
595,101968.23272150668
644,0.0
698,0.0
2,1, 1, 1, 0,17,20.00,30.00,Sunday
10,968.719248
595,102408.32557402012
644,0.0
698,0.0
2,1, 1, 1, 0,17,30.00,40.00,Sunday
10,968.719248
595,103052.65233274286
644,0.0
698,0.0
2,1, 1, 1, 0,17,40.00,50.00,Sunday
10,968.719248
595,103804.82614664042
644,0.0
698,0.0
2,1, 1, 1, 0,17,50.00,60.00,Sunday
10,968.719248
595,104560.03971214034
644,0.0
698,0.0
2,1, 1, 1, 0,17, 0.00,60.00,Sunday
11,5812.315488
596,617577.396471638
645,0.0
699,0.0
2,1, 1, 1, 0,18, 0.00,10.00,Sunday
10,968.719248
595,105535.8556805997
644,0.0
698,0.0
2,1, 1, 1, 0,18,10.00,20.00,Sunday
10,968.719248
595,107135.21000087005
644,0.0
698,0.0
2,1, 1, 1, 0,18,20.00,30.00,Sunday
10,968.719248
595,109085.25313617946
644,0.0
698,0.0
2,1, 1, 1, 0,18,30.00,40.00,Sunday
10,968.719248
595,111220.66158977752
644,0.0
698,0.0
2,1, 1, 1, 0,18,40.00,50.00,Sunday
10,968.719248
595,113481.61392108744
644,0.0
698,0.0
2,1, 1, 1, 0,18,50.00,60.00,Sunday
10,968.719248
595,115835.34737162516
644,0.0
698,0.0
2,1, 1, 1, 0,18, 0.00,60.00,Sunday
11,5812.315488
596,662293.9417001393
645,0.0
699,0.0
2,1, 1, 1, 0,19, 0.00,10.00,Sunday
10,968.719248
595,117480.96417273693
644,0.0
698,0.0
2,1, 1, 1, 0,19,10.00,20.00,Sunday
10,968.719248
595,119164.63323000501
644,0.0
698,0.0
2,1, 1, 1, 0,19,20.00,30.00,Sunday
10,968.719248
595,120855.32311307878
644,0.0
698,0.0
2,1, 1, 1, 0,19,30.00,40.00,Sunday
10,968.719248
595,122535.92219243094
644,0.0
698,0.0
2,1, 1, 1, 0,19,40.00,50.00,Sunday
10,968.719248
595,124193.22730070116
644,0.0
698,0.0
2,1, 1, 1, 0,19,50.00,60.00,Sunday
10,968.719248
595,125823.78328874249
644,0.0
698,0.0
2,1, 1, 1, 0,19, 0.00,60.00,Sunday
11,5812.315488
596,730053.8532976954
645,0.0
699,0.0
2,1, 1, 1, 0,20, 0.00,10.00,Sunday
10,968.719248
595,127731.39937943703
644,0.0
698,0.0
2,1, 1, 1, 0,20,10.00,20.00,Sunday
10,968.719248
595,129614.27241302646
644,0.0
698,0.0
2,1, 1, 1, 0,20,20.00,30.00,Sunday
10,968.719248
595,131478.39539303498
644,0.0
698,0.0
2,1, 1, 1, 0,20,30.00,40.00,Sunday
10,968.719248
595,133330.197310384
644,0.0
698,0.0
2,1, 1, 1, 0,20,40.00,50.00,Sunday
10,968.719248
595,135171.9548525368
644,0.0
698,0.0
2,1, 1, 1, 0,20,50.00,60.00,Sunday
10,968.719248
595,137005.6626712648
644,0.0
698,0.0
2,1, 1, 1, 0,20, 0.00,60.00,Sunday
11,5812.315488
596,794331.8820196841
645,0.0
699,0.0
2,1, 1, 1, 0,21, 0.00,10.00,Sunday
10,968.719248
595,138463.24183346344
644,0.0
698,0.0
2,1, 1, 1, 0,21,10.00,20.00,Sunday
10,968.719248
595,139905.24628486375
644,0.0
698,0.0
2,1, 1, 1, 0,21,20.00,30.00,Sunday
10,968.719248
595,141334.89539341056
644,0.0
698,0.0
2,1, 1, 1, 0,21,30.00,40.00,Sunday
10,968.719248
595,142762.96547884157
644,0.0
698,0.0
2,1, 1, 1, 0,21,40.00,50.00,Sunday
10,968.719248
595,144194.8025317821
644,0.0
698,0.0
2,1, 1, 1, 0,21,50.00,60.00,Sunday
10,968.719248
595,145627.82451984834
644,0.0
698,0.0
2,1, 1, 1, 0,21, 0.00,60.00,Sunday
11,5812.315488
596,852288.9760422097
645,0.0
699,0.0
2,1, 1, 1, 0,22, 0.00,10.00,Sunday
10,968.719248
595,147059.1653737368
644,0.0
698,0.0
2,1, 1, 1, 0,22,10.00,20.00,Sunday
10,968.719248
595,148478.06188202898
644,0.0
698,0.0
2,1, 1, 1, 0,22,20.00,30.00,Sunday
10,968.719248
595,149875.0545953374
644,0.0
698,0.0
2,1, 1, 1, 0,22,30.00,40.00,Sunday
10,968.719248
595,151244.64604923342
644,0.0
698,0.0
2,1, 1, 1, 0,22,40.00,50.00,Sunday
10,968.719248
595,152583.49633767317
644,0.0
698,0.0
2,1, 1, 1, 0,22,50.00,60.00,Sunday
10,968.719248
595,153890.66373645477
644,0.0
698,0.0
2,1, 1, 1, 0,22, 0.00,60.00,Sunday
11,5812.315488
596,903131.0879744645
645,0.0
699,0.0
2,1, 1, 1, 0,23, 0.00,10.00,Sunday
10,968.719248
595,155110.75731553656
644,0.0
698,0.0
2,1, 1, 1, 0,23,10.00,20.00,Sunday
10,968.719248
595,156297.83223618446
644,0.0
698,0.0
2,1, 1, 1, 0,23,20.00,30.00,Sunday
10,968.719248
595,157439.557909381
644,0.0
698,0.0
2,1, 1, 1, 0,23,30.00,40.00,Sunday
10,968.719248
595,158541.39909290197
644,0.0
698,0.0
2,1, 1, 1, 0,23,40.00,50.00,Sunday
10,968.719248
595,159607.39504555567
644,0.0
698,0.0
2,1, 1, 1, 0,23,50.00,60.00,Sunday
10,968.719248
595,160641.1042737249
644,0.0
698,0.0
2,1, 1, 1, 0,23, 0.00,60.00,Sunday
11,5812.315488
596,947638.0458732846
645,0.0
699,0.0
2,1, 1, 1, 0,24, 0.00,10.00,Sunday
10,968.719248
595,161595.2083769981
644,0.0
698,0.0
2,1, 1, 1, 0,24,10.00,20.00,Sunday
10,968.719248
595,162525.84445406049
644,0.0
698,0.0
2,1, 1, 1, 0,24,20.00,30.00,Sunday
10,968.719248
595,163438.8893388569
644,0.0
698,0.0
2,1, 1, 1, 0,24,30.00,40.00,Sunday
10,968.719248
595,164338.47080851175
644,0.0
698,0.0
2,1, 1, 1, 0,24,40.00,50.00,Sunday
10,968.719248
595,165227.36118747045
644,0.0
698,0.0
2,1, 1, 1, 0,24,50.00,60.00,Sunday
10,968.719248
595,166107.10263257259
644,0.0
698,0.0
2,1, 1, 1, 0,24, 0.00,60.00,Sunday
11,5812.315488
596,983232.8767984703
645,0.0
699,0.0
3,1, 1, 1, 0,Sunday
12,139495.5717119997,968.719248, 1,10,968.719248, 1,10
597,21741852.148005848,101783.31998458764,17,10,177260.13882443287, 7,60
646,0.0,0.0, 1,10,0.0, 1,10
700,0.0,0.0, 1,10,0.0, 1,10
2,2, 1, 2, 0, 1, 0.00,10.00,Monday
10,968.719248
595,167182.98403402337
644,0.0
698,0.0
2,2, 1, 2, 0, 1,10.00,20.00,Monday
10,968.719248
595,168251.53883767705
644,0.0
698,0.0
2,2, 1, 2, 0, 1,20.00,30.00,Monday
10,968.719248
595,169313.20320293463
644,0.0
698,0.0
2,2, 1, 2, 0, 1,30.00,40.00,Monday
10,968.719248
595,170368.84112261714
644,0.0
698,0.0
2,2, 1, 2, 0, 1,40.00,50.00,Monday
10,968.719248
595,171424.08713549449
644,0.0
698,0.0
2,2, 1, 2, 0, 1,50.00,60.00,Monday
10,968.719248
595,172482.64963301208
644,0.0
698,0.0
2,2, 1, 2, 0, 1, 0.00,60.00,Monday
11,5812.315488
596,1019023.3039657588
645,0.0
699,0.0
2,2, 1, 2, 0, 2, 0.00,10.00,Monday
10,968.719248
595,173700.13724426376
644,0.0
698,0.0
2,2, 1, 2, 0, 2,10.00,20.00,Monday
10,968.719248
595,174912.90967706266
644,0.0
698,0.0
2,2, 1, 2, 0, 2,20.00,30.00,Monday
10,968.719248
595,176111.80668161633
644,0.0
698,0.0
2,2, 1, 2, 0, 2,30.00,40.00,Monday
10,968.719248
595,177291.6543337227
644,0.0
698,0.0
2,2, 1, 2, 0, 2,40.00,50.00,Monday
10,968.719248
595,178455.07862398996
644,0.0
698,0.0
2,2, 1, 2, 0, 2,50.00,60.00,Monday
10,968.719248
595,179606.55494384195
644,0.0
698,0.0
2,2, 1, 2, 0, 2, 0.00,60.00,Monday
11,5812.315488
596,1060078.1415044973
645,0.0
699,0.0
2,2, 1, 2, 0, 3, 0.00,10.00,Monday
10,968.719248
595,180328.84021271516
644,0.0
698,0.0
2,2, 1, 2, 0, 3,10.00,20.00,Monday
10,968.719248
595,181043.240847496
644,0.0
698,0.0
2,2, 1, 2, 0, 3,20.00,30.00,Monday
10,968.719248
595,181750.22072751367
644,0.0
698,0.0
2,2, 1, 2, 0, 3,30.00,40.00,Monday
10,968.719248
595,182450.49586537679
644,0.0
698,0.0
2,2, 1, 2, 0, 3,40.00,50.00,Monday
10,968.719248
595,183144.73090747835
644,0.0
698,0.0
2,2, 1, 2, 0, 3,50.00,60.00,Monday
10,968.719248
595,183833.82935480245
644,0.0
698,0.0
2,2, 1, 2, 0, 3, 0.00,60.00,Monday
11,5812.315488
596,1092551.3579153824
645,0.0
699,0.0
2,2, 1, 2, 0, 4, 0.00,10.00,Monday
10,968.719248
595,184569.2969980317
644,0.0
698,0.0
2,2, 1, 2, 0, 4,10.00,20.00,Monday
10,968.719248
595,185299.44715943354
644,0.0
698,0.0
2,2, 1, 2, 0, 4,20.00,30.00,Monday
10,968.719248
595,186022.52088088718
644,0.0
698,0.0
2,2, 1, 2, 0, 4,30.00,40.00,Monday
10,968.719248
595,186737.44232123276
644,0.0
698,0.0
2,2, 1, 2, 0, 4,40.00,50.00,Monday
10,968.719248
595,187443.39436123259
644,0.0
698,0.0
2,2, 1, 2, 0, 4,50.00,60.00,Monday
10,968.719248
595,188140.16136035545
644,0.0
698,0.0
2,2, 1, 2, 0, 4, 0.00,60.00,Monday
11,5812.315488
596,1118212.2630811735
645,0.0
699,0.0
2,2, 1, 2, 0, 5, 0.00,10.00,Monday
10,968.719248
595,188880.26531433399
644,0.0
698,0.0
2,2, 1, 2, 0, 5,10.00,20.00,Monday
10,968.719248
595,189612.94489338329
644,0.0
698,0.0
2,2, 1, 2, 0, 5,20.00,30.00,Monday
10,968.719248
595,190341.063093881
644,0.0
698,0.0
2,2, 1, 2, 0, 5,30.00,40.00,Monday
10,968.719248
595,191067.3867471671
644,0.0
698,0.0
2,2, 1, 2, 0, 5,40.00,50.00,Monday
10,968.719248
595,191798.5061812712
644,0.0
698,0.0
2,2, 1, 2, 0, 5,50.00,60.00,Monday
10,968.719248
595,192538.11079175373
644,0.0
698,0.0
2,2, 1, 2, 0, 5, 0.00,60.00,Monday
11,5812.315488
596,1144238.2770217902
645,0.0
699,0.0
2,2, 1, 2, 0, 6, 0.00,10.00,Monday
10,968.719248
595,765792.156898896
644,0.0
698,0.0
2,2, 1, 2, 0, 6,10.00,20.00,Monday
10,968.719248
595,765792.1568988958
644,0.0
698,0.0
2,2, 1, 2, 0, 6,20.00,30.00,Monday
10,968.719248
595,765792.1568988955
644,0.0
698,0.0
2,2, 1, 2, 0, 6,30.00,40.00,Monday
10,968.719248
595,765792.1568988955
644,0.0
698,0.0
2,2, 1, 2, 0, 6,40.00,50.00,Monday
10,968.719248
595,765792.1568988958
644,0.0
698,0.0
2,2, 1, 2, 0, 6,50.00,60.00,Monday
10,968.719248
595,765792.1568988955
644,0.0
698,0.0
2,2, 1, 2, 0, 6, 0.00,60.00,Monday
11,5812.315488
596,4594752.9413933749
645,0.0
699,0.0
2,2, 1, 2, 0, 7, 0.00,10.00,Monday
10,968.719248
595,765792.1568988954
644,0.0
698,0.0
2,2, 1, 2, 0, 7,10.00,20.00,Monday
10,968.719248
595,765792.1568988958
644,0.0
698,0.0
2,2, 1, 2, 0, 7,20.00,30.00,Monday
10,968.719248
595,765792.1568988958
644,0.0
698,0.0
2,2, 1, 2, 0, 7,30.00,40.00,Monday
10,968.719248
595,765792.156898896
644,0.0
698,0.0
2,2, 1, 2, 0, 7,40.00,50.00,Monday
10,968.719248
595,765792.1568988956
644,0.0
698,0.0
2,2, 1, 2, 0, 7,50.00,60.00,Monday
10,968.719248
595,765792.1568988956
644,0.0
698,0.0
2,2, 1, 2, 0, 7, 0.00,60.00,Monday
11,5812.315488
596,4594752.9413933749
645,0.0
699,0.0
2,2, 1, 2, 0, 8, 0.00,10.00,Monday
10,156227.36280000004
595,1721523.0804152808
644,0.0
698,0.0
2,2, 1, 2, 0, 8,10.00,20.00,Monday
10,156227.36280000004
595,1721523.0804152806
644,0.0
698,0.0
2,2, 1, 2, 0, 8,20.00,30.00,Monday
10,156227.36280000004
595,1721523.0804152813
644,0.0
698,0.0
2,2, 1, 2, 0, 8,30.00,40.00,Monday
10,156227.36280000004
595,1721523.080415281
644,0.0
698,0.0
2,2, 1, 2, 0, 8,40.00,50.00,Monday
10,156227.36280000004
595,1719754.5092407589
644,0.0
698,0.0
2,2, 1, 2, 0, 8,50.00,60.00,Monday
10,156227.36280000004
595,1690432.4829583676
644,0.0
698,0.0
2,2, 1, 2, 0, 8, 0.00,60.00,Monday
11,937364.1768000001
596,10296279.31386025
645,0.0
699,0.0
2,2, 1, 2, 0, 9, 0.00,10.00,Monday
10,269334.96839999998
595,1671726.2240207114
644,0.0
698,0.0
2,2, 1, 2, 0, 9,10.00,20.00,Monday
10,269334.96839999998
595,1651483.836252082
644,0.0
698,0.0
2,2, 1, 2, 0, 9,20.00,30.00,Monday
10,265053.4204489982
595,1631616.8055953612
644,0.0
698,0.0
2,2, 1, 2, 0, 9,30.00,40.00,Monday
10,257005.07707000653
595,1613933.0483326433
644,0.0
698,0.0
2,2, 1, 2, 0, 9,40.00,50.00,Monday
10,245560.2850720795
595,1597527.931977409
644,0.0
698,0.0
2,2, 1, 2, 0, 9,50.00,60.00,Monday
10,230717.90630467045
595,1582272.540932943
644,0.0
698,0.0
2,2, 1, 2, 0, 9, 0.00,60.00,Monday
11,1537006.6256957548
596,9748560.38711115
645,0.0
699,0.0
2,2, 1, 2, 0,10, 0.00,10.00,Monday
10,300482.084935017
595,1574433.110199436
644,0.0
698,0.0
2,2, 1, 2, 0,10,10.00,20.00,Monday
10,282448.0862066133
595,1557389.4061259218
644,0.0
698,0.0
2,2, 1, 2, 0,10,20.00,30.00,Monday
10,263953.53326917646
595,1541452.873623306
644,0.0
698,0.0
2,2, 1, 2, 0,10,30.00,40.00,Monday
10,219622.0806512494
595,1249244.1119583995
644,0.0
698,0.0
2,2, 1, 2, 0,10,40.00,50.00,Monday
10,191047.67940000003
595,1167081.488868398
644,0.0
698,0.0
2,2, 1, 2, 0,10,50.00,60.00,Monday
10,239862.4722500923
595,1185193.2057061813
644,0.0
698,0.0
2,2, 1, 2, 0,10, 0.00,60.00,Monday
11,1497415.9367121484
596,8274794.196481642
645,0.0
699,0.0
2,2, 1, 2, 0,11, 0.00,10.00,Monday
10,212055.6474185548
595,1483935.8686792465
644,0.0
698,0.0
2,2, 1, 2, 0,11,10.00,20.00,Monday
10,266181.29187003799
595,1470880.708193188
644,0.0
698,0.0
2,2, 1, 2, 0,11,20.00,30.00,Monday
10,253302.1101221316
595,1458056.0836441345
644,0.0
698,0.0
2,2, 1, 2, 0,11,30.00,40.00,Monday
10,253740.4199948836
595,1445395.1547436687
644,0.0
698,0.0
2,2, 1, 2, 0,11,40.00,50.00,Monday
10,254922.96041612637
595,1433050.2665069607
644,0.0
698,0.0
2,2, 1, 2, 0,11,50.00,60.00,Monday
10,259421.5561432296
595,1346244.3003388188
644,0.0
698,0.0
2,2, 1, 2, 0,11, 0.00,60.00,Monday
11,1499623.985964964
596,8637562.382106018
645,0.0
699,0.0
2,2, 1, 2, 0,12, 0.00,10.00,Monday
10,222171.1937806584
595,1409731.8435645067
644,0.0
698,0.0
2,2, 1, 2, 0,12,10.00,20.00,Monday
10,218433.99071004097
595,1398803.4918673265
644,0.0
698,0.0
2,2, 1, 2, 0,12,20.00,30.00,Monday
10,172772.85552
595,1388402.4736281557
644,0.0
698,0.0
2,2, 1, 2, 0,12,30.00,40.00,Monday
10,172772.85552
595,1190306.069501943
644,0.0
698,0.0
2,2, 1, 2, 0,12,40.00,50.00,Monday
10,172772.85552
595,1369136.5448526897
644,0.0
698,0.0
2,2, 1, 2, 0,12,50.00,60.00,Monday
10,172772.85552
595,821669.2167807084
644,0.0
698,0.0
2,2, 1, 2, 0,12, 0.00,60.00,Monday
11,1131696.6065706993
596,7578049.64019533
645,0.0
699,0.0
2,2, 1, 2, 0,13, 0.00,10.00,Monday
10,140791.91373
595,960199.608612278
644,0.0
698,0.0
2,2, 1, 2, 0,13,10.00,20.00,Monday
10,140791.91373
595,972888.2601217005
644,0.0
698,0.0
2,2, 1, 2, 0,13,20.00,30.00,Monday
10,140791.91373
595,999858.7047537847
644,0.0
698,0.0
2,2, 1, 2, 0,13,30.00,40.00,Monday
10,140791.91373
595,1003225.7933538187
644,0.0
698,0.0
2,2, 1, 2, 0,13,40.00,50.00,Monday
10,140791.91373
595,997710.5699394478
644,0.0
698,0.0
2,2, 1, 2, 0,13,50.00,60.00,Monday
10,140791.91373
595,992140.5920639864
644,0.0
698,0.0
2,2, 1, 2, 0,13, 0.00,60.00,Monday
11,844751.4823800001
596,5926023.528845017
645,0.0
699,0.0
2,2, 1, 2, 0,14, 0.00,10.00,Monday
10,159066.73761
595,1313729.6450910578
644,0.0
698,0.0
2,2, 1, 2, 0,14,10.00,20.00,Monday
10,159066.73761
595,1308610.3883021295
644,0.0
698,0.0
2,2, 1, 2, 0,14,20.00,30.00,Monday
10,193550.1458188599
595,1303634.4199007815
644,0.0
698,0.0
2,2, 1, 2, 0,14,30.00,40.00,Monday
10,159066.73761
595,1298720.6802221945
644,0.0
698,0.0
2,2, 1, 2, 0,14,40.00,50.00,Monday
10,159066.73761
595,755476.8700859349
644,0.0
698,0.0
2,2, 1, 2, 0,14,50.00,60.00,Monday
10,159066.73761
595,1289244.7243353688
644,0.0
698,0.0
2,2, 1, 2, 0,14, 0.00,60.00,Monday
11,988883.8338688598
596,7269416.727937467
645,0.0
699,0.0
2,2, 1, 2, 0,15, 0.00,10.00,Monday
10,191047.67940000003
595,1283378.4330103137
644,0.0
698,0.0
2,2, 1, 2, 0,15,10.00,20.00,Monday
10,191047.67940000003
595,1278297.4995309173
644,0.0
698,0.0
2,2, 1, 2, 0,15,20.00,30.00,Monday
10,191047.67940000003
595,777729.9531067925
644,0.0
698,0.0
2,2, 1, 2, 0,15,30.00,40.00,Monday
10,191047.67940000003
595,1270055.1937930342
644,0.0
698,0.0
2,2, 1, 2, 0,15,40.00,50.00,Monday
10,191047.67940000003
595,1267860.0975990827
644,0.0
698,0.0
2,2, 1, 2, 0,15,50.00,60.00,Monday
10,191047.67940000003
595,1266357.3414885575
644,0.0
698,0.0
2,2, 1, 2, 0,15, 0.00,60.00,Monday
11,1146286.0764000002
596,7143678.518528698
645,0.0
699,0.0
2,2, 1, 2, 0,16, 0.00,10.00,Monday
10,172772.85552
595,990074.2445497551
644,0.0
698,0.0
2,2, 1, 2, 0,16,10.00,20.00,Monday
10,172772.85552
595,1264092.0613306924
644,0.0
698,0.0
2,2, 1, 2, 0,16,20.00,30.00,Monday
10,188147.8704993654
595,1262591.9839507743
644,0.0
698,0.0
2,2, 1, 2, 0,16,30.00,40.00,Monday
10,208528.2637473654
595,1260869.8368605925
644,0.0
698,0.0
2,2, 1, 2, 0,16,40.00,50.00,Monday
10,228268.12107981038
595,1258946.1833655255
644,0.0
698,0.0
2,2, 1, 2, 0,16,50.00,60.00,Monday
10,247389.05975884759
595,1256903.1258690509
644,0.0
698,0.0
2,2, 1, 2, 0,16, 0.00,60.00,Monday
11,1217879.026125389
596,7293477.435926391
645,0.0
699,0.0
2,2, 1, 2, 0,17, 0.00,10.00,Monday
10,224345.49182893145
595,715643.588357257
644,0.0
698,0.0
2,2, 1, 2, 0,17,10.00,20.00,Monday
10,237777.34544909598
595,1251177.9866481126
644,0.0
698,0.0
2,2, 1, 2, 0,17,20.00,30.00,Monday
10,250715.18260283466
595,1248242.1926315416
644,0.0
698,0.0
2,2, 1, 2, 0,17,30.00,40.00,Monday
10,253831.90704216675
595,1245298.5283006875
644,0.0
698,0.0
2,2, 1, 2, 0,17,40.00,50.00,Monday
10,256907.29756194924
595,1242404.6675781685
644,0.0
698,0.0
2,2, 1, 2, 0,17,50.00,60.00,Monday
10,269334.96839999998
595,1239543.718148241
644,0.0
698,0.0
2,2, 1, 2, 0,17, 0.00,60.00,Monday
11,1492912.1928849782
596,6942310.681664008
645,0.0
699,0.0
2,2, 1, 2, 0,18, 0.00,10.00,Monday
10,156227.36280000004
595,823352.6284824924
644,0.0
698,0.0
2,2, 1, 2, 0,18,10.00,20.00,Monday
10,156227.36280000004
595,283762.11606478286
644,0.0
698,0.0
2,2, 1, 2, 0,18,20.00,30.00,Monday
10,156227.36280000004
595,282283.00330042696
644,0.0
698,0.0
2,2, 1, 2, 0,18,30.00,40.00,Monday
10,156227.36280000004
595,819221.2366180357
644,0.0
698,0.0
2,2, 1, 2, 0,18,40.00,50.00,Monday
10,156227.36280000004
595,824162.7025837652
644,0.0
698,0.0
2,2, 1, 2, 0,18,50.00,60.00,Monday
10,156227.36280000004
595,388316.11196332858
644,0.0
698,0.0
2,2, 1, 2, 0,18, 0.00,60.00,Monday
11,937364.1768000001
596,3421097.7990128316
645,0.0
699,0.0
2,2, 1, 2, 0,19, 0.00,10.00,Monday
10,99673.56
595,277449.23350123807
644,0.0
698,0.0
2,2, 1, 2, 0,19,10.00,20.00,Monday
10,99673.56
595,276110.72550339528
644,0.0
698,0.0
2,2, 1, 2, 0,19,20.00,30.00,Monday
10,99673.56
595,274680.57271750128
644,0.0
698,0.0
2,2, 1, 2, 0,19,30.00,40.00,Monday
10,99673.56
595,273314.4881533357
644,0.0
698,0.0
2,2, 1, 2, 0,19,40.00,50.00,Monday
10,99673.56
595,272039.87108376386
644,0.0
698,0.0
2,2, 1, 2, 0,19,50.00,60.00,Monday
10,99673.56
595,270858.3199012953
644,0.0
698,0.0
2,2, 1, 2, 0,19, 0.00,60.00,Monday
11,598041.36
596,1644453.2108605295
645,0.0
699,0.0
2,2, 1, 2, 0,20, 0.00,10.00,Monday
10,17959.2
595,0.0
644,0.0
698,0.0
2,2, 1, 2, 0,20,10.00,20.00,Monday
10,17959.2
595,0.0
644,0.0
698,0.0
2,2, 1, 2, 0,20,20.00,30.00,Monday
10,17959.2
595,0.0
644,0.0
698,0.0
2,2, 1, 2, 0,20,30.00,40.00,Monday
10,17959.2
595,0.0
644,0.0
698,0.0
2,2, 1, 2, 0,20,40.00,50.00,Monday
10,17959.2
595,0.0
644,0.0
698,0.0
2,2, 1, 2, 0,20,50.00,60.00,Monday
10,17959.2
595,0.0
644,0.0
698,0.0
2,2, 1, 2, 0,20, 0.00,60.00,Monday
11,107755.2
596,0.0
645,0.0
699,0.0
2,2, 1, 2, 0,21, 0.00,10.00,Monday
10,968.719248
595,0.0
644,0.0
698,0.0
2,2, 1, 2, 0,21,10.00,20.00,Monday
10,968.719248
595,0.0
644,0.0
698,0.0
2,2, 1, 2, 0,21,20.00,30.00,Monday
10,968.719248
595,0.0
644,0.0
698,0.0
2,2, 1, 2, 0,21,30.00,40.00,Monday
10,968.719248
595,0.0