Program Version,EnergyPlus, Version 9.3.0-baff08990c, YMD=2022.03.08 13:17
1,5,Environment Title[],Latitude[deg],Longitude[deg],Time Zone[],Elevation[m]
2,8,Day of Simulation[],Month[],Day of Month[],DST Indicator[1=yes 0=no],Hour[],StartMinute[],EndMinute[],DayType
3,5,Cumulative Day of Simulation[],Month[],Day of Month[],DST Indicator[1=yes 0=no],DayType  ! When Daily Meters Requested
4,2,Cumulative Days of Simulation[],Month[]  ! When Monthly Meters Requested
5,1,Cumulative Days of Simulation[] ! When Run Period Meters Requested
6,1,Calendar Year of Simulation[] ! When Annual Meters Requested
11,1,Electricity:Facility [J] !Hourly
645,1,DistrictCooling:Facility [J] !Hourly
596,1,DistrictHeating:Facility [J] !Hourly
699,1,Carbon Equivalent:Facility [kg] !Hourly
12,7,Electricity:Facility [J] !Daily [Value,Min,Hour,Minute,Max,Hour,Minute]
646,7,DistrictCooling:Facility [J] !Daily [Value,Min,Hour,Minute,Max,Hour,Minute]
597,7,DistrictHeating:Facility [J] !Daily [Value,Min,Hour,Minute,Max,Hour,Minute]
700,7,Carbon Equivalent:Facility [kg] !Daily [Value,Min,Hour,Minute,Max,Hour,Minute]
13,9,Electricity:Facility [J] !Monthly [Value,Min,Day,Hour,Minute,Max,Day,Hour,Minute]
647,9,DistrictCooling:Facility [J] !Monthly [Value,Min,Day,Hour,Minute,Max,Day,Hour,Minute]
598,9,DistrictHeating:Facility [J] !Monthly [Value,Min,Day,Hour,Minute,Max,Day,Hour,Minute]
701,9,Carbon Equivalent:Facility [kg] !Monthly [Value,Min,Day,Hour,Minute,Max,Day,Hour,Minute]
15,11,Electricity:Facility [J] !RunPeriod [Value,Min,Month,Day,Hour,Minute,Max,Month,Day,Hour,Minute]
649,11,DistrictCooling:Facility [J] !RunPeriod [Value,Min,Month,Day,Hour,Minute,Max,Month,Day,Hour,Minute]
600,11,DistrictHeating:Facility [J] !RunPeriod [Value,Min,Month,Day,Hour,Minute,Max,Month,Day,Hour,Minute]
703,11,Carbon Equivalent:Facility [kg] !RunPeriod [Value,Min,Month,Day,Hour,Minute,Max,Month,Day,Hour,Minute]
10,1,Electricity:Facility [J] !TimeStep
644,1,DistrictCooling:Facility [J] !TimeStep
595,1,DistrictHeating:Facility [J] !TimeStep
698,1,Carbon Equivalent:Facility [kg] !TimeStep
End of Data Dictionary
1,FRIBOURG (O1-O1:31-12),  46.24,   6.11,   1.00, 430.10
2,1, 1, 1, 0, 1, 0.00,10.00,Sunday
10,968.719248
595,166874.78162415914
644,0.0
698,0.0
2,1, 1, 1, 0, 1,10.00,20.00,Sunday
10,968.719248
595,166009.41075270999
644,0.0
698,0.0
2,1, 1, 1, 0, 1,20.00,30.00,Sunday
10,968.719248
595,165099.2260502031
644,0.0
698,0.0
2,1, 1, 1, 0, 1,30.00,40.00,Sunday
10,968.719248
595,164128.50452007535
644,0.0
698,0.0
2,1, 1, 1, 0, 1,40.00,50.00,Sunday
10,968.719248
595,163090.82886383896
644,0.0
698,0.0
2,1, 1, 1, 0, 1,50.00,60.00,Sunday
10,968.719248
595,161980.45875368003
644,0.0
698,0.0
2,1, 1, 1, 0, 1, 0.00,60.00,Sunday
11,5812.315488
596,987183.2105646666
645,0.0
699,0.0
2,1, 1, 1, 0, 2, 0.00,10.00,Sunday
10,968.719248
595,162602.10443212975
644,0.0
698,0.0
2,1, 1, 1, 0, 2,10.00,20.00,Sunday
10,968.719248
595,163158.7713789077
644,0.0
698,0.0
2,1, 1, 1, 0, 2,20.00,30.00,Sunday
10,968.719248
595,163678.92117455987
644,0.0
698,0.0
2,1, 1, 1, 0, 2,30.00,40.00,Sunday
10,968.719248
595,164180.90578367483
644,0.0
698,0.0
2,1, 1, 1, 0, 2,40.00,50.00,Sunday
10,968.719248
595,164674.7007092127
644,0.0
698,0.0
2,1, 1, 1, 0, 2,50.00,60.00,Sunday
10,968.719248
595,165162.69796039715
644,0.0
698,0.0
2,1, 1, 1, 0, 2, 0.00,60.00,Sunday
11,5812.315488
596,983458.101438882
645,0.0
699,0.0
2,1, 1, 1, 0, 3, 0.00,10.00,Sunday
10,968.719248
595,165749.06126971148
644,0.0
698,0.0
2,1, 1, 1, 0, 3,10.00,20.00,Sunday
10,968.719248
595,166334.79905265987
644,0.0
698,0.0
2,1, 1, 1, 0, 3,20.00,30.00,Sunday
10,968.719248
595,166926.97261704459
644,0.0
698,0.0
2,1, 1, 1, 0, 3,30.00,40.00,Sunday
10,968.719248
595,167530.0927593773
644,0.0
698,0.0
2,1, 1, 1, 0, 3,40.00,50.00,Sunday
10,968.719248
595,168146.57240477767
644,0.0
698,0.0
2,1, 1, 1, 0, 3,50.00,60.00,Sunday
10,968.719248
595,168776.99507219159
644,0.0
698,0.0
2,1, 1, 1, 0, 3, 0.00,60.00,Sunday
11,5812.315488
596,1003464.4931757625
645,0.0
699,0.0
2,1, 1, 1, 0, 4, 0.00,10.00,Sunday
10,968.719248
595,169212.91581024417
644,0.0
698,0.0
2,1, 1, 1, 0, 4,10.00,20.00,Sunday
10,968.719248
595,169659.7098041455
644,0.0
698,0.0
2,1, 1, 1, 0, 4,20.00,30.00,Sunday
10,968.719248
595,170113.29041076255
644,0.0
698,0.0
2,1, 1, 1, 0, 4,30.00,40.00,Sunday
10,968.719248
595,170570.60622068164
644,0.0
698,0.0
2,1, 1, 1, 0, 4,40.00,50.00,Sunday
10,968.719248
595,171029.38693336879
644,0.0
698,0.0
2,1, 1, 1, 0, 4,50.00,60.00,Sunday
10,968.719248
595,171488.35314848726
644,0.0
698,0.0
2,1, 1, 1, 0, 4, 0.00,60.00,Sunday
11,5812.315488
596,1022074.2623276899
645,0.0
699,0.0
2,1, 1, 1, 0, 5, 0.00,10.00,Sunday
10,968.719248
595,172253.6956128475
644,0.0
698,0.0
2,1, 1, 1, 0, 5,10.00,20.00,Sunday
10,968.719248
595,173018.348309864
644,0.0
698,0.0
2,1, 1, 1, 0, 5,20.00,30.00,Sunday
10,968.719248
595,173782.45571090815
644,0.0
698,0.0
2,1, 1, 1, 0, 5,30.00,40.00,Sunday
10,968.719248
595,174546.19939834684
644,0.0
698,0.0
2,1, 1, 1, 0, 5,40.00,50.00,Sunday
10,968.719248
595,175309.4276374195
644,0.0
698,0.0
2,1, 1, 1, 0, 5,50.00,60.00,Sunday
10,968.719248
595,176072.13649521004
644,0.0
698,0.0
2,1, 1, 1, 0, 5, 0.00,60.00,Sunday
11,5812.315488
596,1044982.2631645959
645,0.0
699,0.0
2,1, 1, 1, 0, 6, 0.00,10.00,Sunday
10,968.719248
595,176885.84472479434
644,0.0
698,0.0
2,1, 1, 1, 0, 6,10.00,20.00,Sunday
10,968.719248
595,177698.21744966304
644,0.0
698,0.0
2,1, 1, 1, 0, 6,20.00,30.00,Sunday
10,968.719248
595,178507.72404372847
644,0.0
698,0.0
2,1, 1, 1, 0, 6,30.00,40.00,Sunday
10,968.719248
595,179313.3364435015
644,0.0
698,0.0
2,1, 1, 1, 0, 6,40.00,50.00,Sunday
10,968.719248
595,180114.53387687275
644,0.0
698,0.0
2,1, 1, 1, 0, 6,50.00,60.00,Sunday
10,968.719248
595,180911.19344851364
644,0.0
698,0.0
2,1, 1, 1, 0, 6, 0.00,60.00,Sunday
11,5812.315488
596,1073430.8499870739
645,0.0
699,0.0
2,1, 1, 1, 0, 7, 0.00,10.00,Sunday
10,968.719248
595,181029.2381312171
644,0.0
698,0.0
2,1, 1, 1, 0, 7,10.00,20.00,Sunday
10,968.719248
595,181138.047744922
644,0.0
698,0.0
2,1, 1, 1, 0, 7,20.00,30.00,Sunday
10,968.719248
595,181231.5885856467
644,0.0
698,0.0
2,1, 1, 1, 0, 7,30.00,40.00,Sunday
10,968.719248
595,181306.14578259178
644,0.0
698,0.0
2,1, 1, 1, 0, 7,40.00,50.00,Sunday
10,968.719248
595,181360.9380212236
644,0.0
698,0.0
2,1, 1, 1, 0, 7,50.00,60.00,Sunday
10,968.719248
595,181395.8310154778
644,0.0
698,0.0
2,1, 1, 1, 0, 7, 0.00,60.00,Sunday
11,5812.315488
596,1087461.789281079
645,0.0
699,0.0
2,1, 1, 1, 0, 8, 0.00,10.00,Sunday
10,968.719248
595,180835.28684931278
644,0.0
698,0.0
2,1, 1, 1, 0, 8,10.00,20.00,Sunday
10,968.719248
595,180253.69855639028
644,0.0
698,0.0
2,1, 1, 1, 0, 8,20.00,30.00,Sunday
10,968.719248
595,179655.48133047057
644,0.0
698,0.0
2,1, 1, 1, 0, 8,30.00,40.00,Sunday
10,968.719248
595,179039.84142560807
644,0.0
698,0.0
2,1, 1, 1, 0, 8,40.00,50.00,Sunday
10,968.719248
595,178405.16712390167
644,0.0
698,0.0
2,1, 1, 1, 0, 8,50.00,60.00,Sunday
10,968.719248
595,177749.87257051163
644,0.0
698,0.0
2,1, 1, 1, 0, 8, 0.00,60.00,Sunday
11,5812.315488
596,1075939.347856195
645,0.0
699,0.0
2,1, 1, 1, 0, 9, 0.00,10.00,Sunday
10,968.719248
595,177540.02905502704
644,0.0
698,0.0
2,1, 1, 1, 0, 9,10.00,20.00,Sunday
10,968.719248
595,177312.80054149268
644,0.0
698,0.0
2,1, 1, 1, 0, 9,20.00,30.00,Sunday
10,968.719248
595,177072.32985357924
644,0.0
698,0.0
2,1, 1, 1, 0, 9,30.00,40.00,Sunday
10,968.719248
595,176825.21720968767
644,0.0
698,0.0
2,1, 1, 1, 0, 9,40.00,50.00,Sunday
10,968.719248
595,176565.73281703818
644,0.0
698,0.0
2,1, 1, 1, 0, 9,50.00,60.00,Sunday
10,968.719248
595,176283.3281679138
644,0.0
698,0.0
2,1, 1, 1, 0, 9, 0.00,60.00,Sunday
11,5812.315488
596,1061599.4376447385
645,0.0
699,0.0
2,1, 1, 1, 0,10, 0.00,10.00,Sunday
10,968.719248
595,176170.1452125252
644,0.0
698,0.0
2,1, 1, 1, 0,10,10.00,20.00,Sunday
10,968.719248
595,176019.5819705568
644,0.0
698,0.0
2,1, 1, 1, 0,10,20.00,30.00,Sunday
10,968.719248
595,175828.91189471176
644,0.0
698,0.0
2,1, 1, 1, 0,10,30.00,40.00,Sunday
10,968.719248
595,175597.8238378805
644,0.0
698,0.0
2,1, 1, 1, 0,10,40.00,50.00,Sunday
10,968.719248
595,175323.2418518297
644,0.0
698,0.0
2,1, 1, 1, 0,10,50.00,60.00,Sunday
10,968.719248
595,174996.46628573477
644,0.0
698,0.0
2,1, 1, 1, 0,10, 0.00,60.00,Sunday
11,5812.315488
596,1053936.1710532387
645,0.0
699,0.0
2,1, 1, 1, 0,11, 0.00,10.00,Sunday
10,968.719248
595,174409.3246297863
644,0.0
698,0.0
2,1, 1, 1, 0,11,10.00,20.00,Sunday
10,968.719248
595,173756.52706732416
644,0.0
698,0.0
2,1, 1, 1, 0,11,20.00,30.00,Sunday
10,968.719248
595,173034.7401276409
644,0.0
698,0.0
2,1, 1, 1, 0,11,30.00,40.00,Sunday
10,968.719248
595,172238.4272188267
644,0.0
698,0.0
2,1, 1, 1, 0,11,40.00,50.00,Sunday
10,968.719248
595,171370.29891163045
644,0.0
698,0.0
2,1, 1, 1, 0,11,50.00,60.00,Sunday
10,968.719248
595,170433.5244736735
644,0.0
698,0.0
2,1, 1, 1, 0,11, 0.00,60.00,Sunday
11,5812.315488
596,1035242.8424288819
645,0.0
699,0.0
2,1, 1, 1, 0,12, 0.00,10.00,Sunday
10,968.719248
595,169381.80999446097
644,0.0
698,0.0
2,1, 1, 1, 0,12,10.00,20.00,Sunday
10,968.719248
595,168264.01457506993
644,0.0
698,0.0
2,1, 1, 1, 0,12,20.00,30.00,Sunday
10,968.719248
595,167072.66200700799
644,0.0
698,0.0
2,1, 1, 1, 0,12,30.00,40.00,Sunday
10,968.719248
595,165778.38879457207
644,0.0
698,0.0
2,1, 1, 1, 0,12,40.00,50.00,Sunday
10,968.719248
595,164390.26127233066
644,0.0
698,0.0
2,1, 1, 1, 0,12,50.00,60.00,Sunday
10,968.719248
595,162964.8838542781
644,0.0
698,0.0
2,1, 1, 1, 0,12, 0.00,60.00,Sunday
11,5812.315488
596,997852.0204977198
645,0.0
699,0.0
2,1, 1, 1, 0,13, 0.00,10.00,Sunday
10,968.719248
595,161774.6781182933
644,0.0
698,0.0
2,1, 1, 1, 0,13,10.00,20.00,Sunday
10,968.719248
595,160572.22888406396
644,0.0
698,0.0
2,1, 1, 1, 0,13,20.00,30.00,Sunday
10,968.719248
595,159372.42217695187
644,0.0
698,0.0
2,1, 1, 1, 0,13,30.00,40.00,Sunday
10,968.719248
595,158165.9352638143
644,0.0
698,0.0
2,1, 1, 1, 0,13,40.00,50.00,Sunday
10,968.719248
595,156802.86032482296
644,0.0
698,0.0
2,1, 1, 1, 0,13,50.00,60.00,Sunday
10,968.719248
595,155100.0981172873
644,0.0
698,0.0
2,1, 1, 1, 0,13, 0.00,60.00,Sunday
11,5812.315488
596,951788.2228852336
645,0.0
699,0.0
2,1, 1, 1, 0,14, 0.00,10.00,Sunday
10,968.719248
595,152885.85095635354
644,0.0
698,0.0
2,1, 1, 1, 0,14,10.00,20.00,Sunday
10,968.719248
595,150266.2537365955
644,0.0
698,0.0
2,1, 1, 1, 0,14,20.00,30.00,Sunday
10,968.719248
595,147301.04557609093
644,0.0
698,0.0
2,1, 1, 1, 0,14,30.00,40.00,Sunday
10,968.719248
595,144089.1642857814
644,0.0
698,0.0
2,1, 1, 1, 0,14,40.00,50.00,Sunday
10,968.719248
595,140902.98554281557
644,0.0
698,0.0
2,1, 1, 1, 0,14,50.00,60.00,Sunday
10,968.719248
595,138334.35024519135
644,0.0
698,0.0
2,1, 1, 1, 0,14, 0.00,60.00,Sunday
11,5812.315488
596,873779.6503428283
645,0.0
699,0.0
2,1, 1, 1, 0,15, 0.00,10.00,Sunday
10,968.719248
595,134686.92137419366
644,0.0
698,0.0
2,1, 1, 1, 0,15,10.00,20.00,Sunday
10,968.719248
595,131001.26089795605
644,0.0
698,0.0
2,1, 1, 1, 0,15,20.00,30.00,Sunday
10,968.719248
595,127346.46124646046
644,0.0
698,0.0
2,1, 1, 1, 0,15,30.00,40.00,Sunday
10,968.719248
595,123784.05126855833
644,0.0
698,0.0
2,1, 1, 1, 0,15,40.00,50.00,Sunday
10,968.719248
595,120408.58599334077
644,0.0
698,0.0
2,1, 1, 1, 0,15,50.00,60.00,Sunday
10,968.719248
595,117267.33484427996
644,0.0
698,0.0
2,1, 1, 1, 0,15, 0.00,60.00,Sunday
11,5812.315488
596,754494.6156247892
645,0.0
699,0.0
2,1, 1, 1, 0,16, 0.00,10.00,Sunday
10,968.719248
595,114714.32347822521
644,0.0
698,0.0
2,1, 1, 1, 0,16,10.00,20.00,Sunday
10,968.719248
595,112484.98900281558
644,0.0
698,0.0
2,1, 1, 1, 0,16,20.00,30.00,Sunday
10,968.719248
595,110585.63137903475
644,0.0
698,0.0
2,1, 1, 1, 0,16,30.00,40.00,Sunday
10,968.719248
595,109040.41581276289
644,0.0
698,0.0
2,1, 1, 1, 0,16,40.00,50.00,Sunday
10,968.719248
595,107843.00861725751
644,0.0
698,0.0
2,1, 1, 1, 0,16,50.00,60.00,Sunday
10,968.719248
595,106992.8836800468
644,0.0
698,0.0
2,1, 1, 1, 0,16, 0.00,60.00,Sunday
11,5812.315488
596,661661.2519701427
645,0.0
699,0.0
2,1, 1, 1, 0,17, 0.00,10.00,Sunday
10,968.719248
595,106915.94415377632
644,0.0
698,0.0
2,1, 1, 1, 0,17,10.00,20.00,Sunday
10,968.719248
595,107142.70080164961
644,0.0
698,0.0
2,1, 1, 1, 0,17,20.00,30.00,Sunday
10,968.719248
595,107622.31564520425
644,0.0
698,0.0
2,1, 1, 1, 0,17,30.00,40.00,Sunday
10,968.719248
595,108303.87342064808
644,0.0
698,0.0
2,1, 1, 1, 0,17,40.00,50.00,Sunday
10,968.719248
595,109089.31178536659
644,0.0
698,0.0
2,1, 1, 1, 0,17,50.00,60.00,Sunday
10,968.719248
595,109870.13370144859
644,0.0
698,0.0
2,1, 1, 1, 0,17, 0.00,60.00,Sunday
11,5812.315488
596,648944.2795080934
645,0.0
699,0.0
2,1, 1, 1, 0,18, 0.00,10.00,Sunday
10,968.719248
595,110815.81560548146
644,0.0
698,0.0
2,1, 1, 1, 0,18,10.00,20.00,Sunday
10,968.719248
595,112538.08113428833
644,0.0
698,0.0
2,1, 1, 1, 0,18,20.00,30.00,Sunday
10,968.719248
595,114521.75196643558
644,0.0
698,0.0
2,1, 1, 1, 0,18,30.00,40.00,Sunday
10,968.719248
595,116686.31255377222
644,0.0
698,0.0
2,1, 1, 1, 0,18,40.00,50.00,Sunday
10,968.719248
595,118970.81255444009
644,0.0
698,0.0
2,1, 1, 1, 0,18,50.00,60.00,Sunday
10,968.719248
595,121342.74871550815
644,0.0
698,0.0
2,1, 1, 1, 0,18, 0.00,60.00,Sunday
11,5812.315488
596,694875.5225299258
645,0.0
699,0.0
2,1, 1, 1, 0,19, 0.00,10.00,Sunday
10,968.719248
595,123001.85660412071
644,0.0
698,0.0
2,1, 1, 1, 0,19,10.00,20.00,Sunday
10,968.719248
595,124694.58981654438
644,0.0
698,0.0
2,1, 1, 1, 0,19,20.00,30.00,Sunday
10,968.719248
595,126390.52639612674
644,0.0
698,0.0
2,1, 1, 1, 0,19,30.00,40.00,Sunday
10,968.719248
595,128072.76138209751
644,0.0
698,0.0
2,1, 1, 1, 0,19,40.00,50.00,Sunday
10,968.719248
595,129728.58102979954
644,0.0
698,0.0
2,1, 1, 1, 0,19,50.00,60.00,Sunday
10,968.719248
595,131354.6461962992
644,0.0
698,0.0
2,1, 1, 1, 0,19, 0.00,60.00,Sunday
11,5812.315488
596,763242.961424988
645,0.0
699,0.0
2,1, 1, 1, 0,20, 0.00,10.00,Sunday
10,968.719248
595,133255.16473397
644,0.0
698,0.0
2,1, 1, 1, 0,20,10.00,20.00,Sunday
10,968.719248
595,135128.46199412223
644,0.0
698,0.0
2,1, 1, 1, 0,20,20.00,30.00,Sunday
10,968.719248
595,136980.95623260045
644,0.0
698,0.0
2,1, 1, 1, 0,20,30.00,40.00,Sunday
10,968.719248
595,138819.22431261705
644,0.0
698,0.0
2,1, 1, 1, 0,20,40.00,50.00,Sunday
10,968.719248
595,140645.88769603015
644,0.0
698,0.0
2,1, 1, 1, 0,20,50.00,60.00,Sunday
10,968.719248
595,142463.0445710982
644,0.0
698,0.0
2,1, 1, 1, 0,20, 0.00,60.00,Sunday
11,5812.315488
596,827292.7395404379
645,0.0
699,0.0
2,1, 1, 1, 0,21, 0.00,10.00,Sunday
10,968.719248
595,143902.88576623717
644,0.0
698,0.0
2,1, 1, 1, 0,21,10.00,20.00,Sunday
10,968.719248
595,145326.0418944241
644,0.0
698,0.0
2,1, 1, 1, 0,21,20.00,30.00,Sunday
10,968.719248
595,146735.94900973323
644,0.0
698,0.0
2,1, 1, 1, 0,21,30.00,40.00,Sunday
10,968.719248
595,148143.44262232219
644,0.0
698,0.0
2,1, 1, 1, 0,21,40.00,50.00,Sunday
10,968.719248
595,149554.04130829493
644,0.0
698,0.0
2,1, 1, 1, 0,21,50.00,60.00,Sunday
10,968.719248
595,150965.21209227664
644,0.0
698,0.0
2,1, 1, 1, 0,21, 0.00,60.00,Sunday
11,5812.315488
596,884627.5726932883
645,0.0
699,0.0
2,1, 1, 1, 0,22, 0.00,10.00,Sunday
10,968.719248
595,152374.22738666426
644,0.0
698,0.0
2,1, 1, 1, 0,22,10.00,20.00,Sunday
10,968.719248
595,153770.3662832849
644,0.0
698,0.0
2,1, 1, 1, 0,22,20.00,30.00,Sunday
10,968.719248
595,155144.28596156217
644,0.0
698,0.0
2,1, 1, 1, 0,22,30.00,40.00,Sunday
10,968.719248
595,156483.28936522353
644,0.0
698,0.0
2,1, 1, 1, 0,22,40.00,50.00,Sunday
10,968.719248
595,157793.8649040324
644,0.0
698,0.0
2,1, 1, 1, 0,22,50.00,60.00,Sunday
10,968.719248
595,159074.58989691468
644,0.0
698,0.0
2,1, 1, 1, 0,22, 0.00,60.00,Sunday
11,5812.315488
596,934640.6237976819
645,0.0
699,0.0
2,1, 1, 1, 0,23, 0.00,10.00,Sunday
10,968.719248
595,160268.4809087727
644,0.0
698,0.0
2,1, 1, 1, 0,23,10.00,20.00,Sunday
10,968.719248
595,161429.57406248287
644,0.0
698,0.0
2,1, 1, 1, 0,23,20.00,30.00,Sunday
10,968.719248
595,162552.06191352019
644,0.0
698,0.0
2,1, 1, 1, 0,23,30.00,40.00,Sunday
10,968.719248
595,163632.7580984121
644,0.0
698,0.0
2,1, 1, 1, 0,23,40.00,50.00,Sunday
10,968.719248
595,164675.8209754177
644,0.0
698,0.0
2,1, 1, 1, 0,23,50.00,60.00,Sunday
10,968.719248
595,165686.33507930389
644,0.0
698,0.0
2,1, 1, 1, 0,23, 0.00,60.00,Sunday
11,5812.315488
596,978245.0310379095
645,0.0
699,0.0
2,1, 1, 1, 0,24, 0.00,10.00,Sunday
10,968.719248
595,166617.26087634869
644,0.0
698,0.0
2,1, 1, 1, 0,24,10.00,20.00,Sunday
10,968.719248
595,167524.80397365275
644,0.0
698,0.0
2,1, 1, 1, 0,24,20.00,30.00,Sunday
10,968.719248
595,168414.91126016683
644,0.0
698,0.0
2,1, 1, 1, 0,24,30.00,40.00,Sunday
10,968.719248
595,169291.72823185958
644,0.0
698,0.0
2,1, 1, 1, 0,24,40.00,50.00,Sunday
10,968.719248
595,170158.06516727707
644,0.0
698,0.0
2,1, 1, 1, 0,24,50.00,60.00,Sunday
10,968.719248
595,171015.4757499472
644,0.0
698,0.0
2,1, 1, 1, 0,24, 0.00,60.00,Sunday
11,5812.315488
596,1013022.2452592522
645,0.0
699,0.0
3,1, 1, 1, 0,Sunday
12,139495.5717119997,968.719248, 1,10,968.719248, 1,10
597,22413239.5060351,106915.94415377632,17,10,181395.8310154778, 7,60
646,0.0,0.0, 1,10,0.0, 1,10
700,0.0,0.0, 1,10,0.0, 1,10
2,2, 1, 2, 0, 1, 0.00,10.00,Monday
10,968.719248
595,172069.27191867907
644,0.0
698,0.0
2,2, 1, 2, 0, 1,10.00,20.00,Monday
10,968.719248
595,173116.00088568554
644,0.0
698,0.0
2,2, 1, 2, 0, 1,20.00,30.00,Monday
10,968.719248
595,174156.1212319879
644,0.0
698,0.0
2,2, 1, 2, 0, 1,30.00,40.00,Monday
10,968.719248
595,175190.50739411964
644,0.0
698,0.0
2,2, 1, 2, 0, 1,40.00,50.00,Monday
10,968.719248
595,176224.79464417895
644,0.0
698,0.0
2,2, 1, 2, 0, 1,50.00,60.00,Monday
10,968.719248
595,177262.69088880687
644,0.0
698,0.0
2,2, 1, 2, 0, 1, 0.00,60.00,Monday
11,5812.315488
596,1048019.3869634578
645,0.0
699,0.0
2,2, 1, 2, 0, 2, 0.00,10.00,Monday
10,968.719248
595,178459.81054983717
644,0.0
698,0.0
2,2, 1, 2, 0, 2,10.00,20.00,Monday
10,968.719248
595,179652.52797856189
644,0.0
698,0.0
2,2, 1, 2, 0, 2,20.00,30.00,Monday
10,968.719248
595,180831.69805906033
644,0.0
698,0.0
2,2, 1, 2, 0, 2,30.00,40.00,Monday
10,968.719248
595,181992.15509092256
644,0.0
698,0.0
2,2, 1, 2, 0, 2,40.00,50.00,Monday
10,968.719248
595,183136.5144201067
644,0.0
698,0.0
2,2, 1, 2, 0, 2,50.00,60.00,Monday
10,968.719248
595,184269.24338305684
644,0.0
698,0.0
2,2, 1, 2, 0, 2, 0.00,60.00,Monday
11,5812.315488
596,1088341.9494815453
645,0.0
699,0.0
2,2, 1, 2, 0, 3, 0.00,10.00,Monday
10,968.719248
595,184973.08741840023
644,0.0
698,0.0
2,2, 1, 2, 0, 3,10.00,20.00,Monday
10,968.719248
595,185669.34608588837
644,0.0
698,0.0
2,2, 1, 2, 0, 3,20.00,30.00,Monday
10,968.719248
595,186358.46940509097
644,0.0
698,0.0
2,2, 1, 2, 0, 3,30.00,40.00,Monday
10,968.719248
595,187041.1681812174
644,0.0
698,0.0
2,2, 1, 2, 0, 3,40.00,50.00,Monday
10,968.719248
595,187718.0965524236
644,0.0
698,0.0
2,2, 1, 2, 0, 3,50.00,60.00,Monday
10,968.719248
595,188390.15514587426
644,0.0
698,0.0
2,2, 1, 2, 0, 3, 0.00,60.00,Monday
11,5812.315488
596,1120150.3227888947
645,0.0
699,0.0
2,2, 1, 2, 0, 4, 0.00,10.00,Monday
10,968.719248
595,189108.83939055156
644,0.0
698,0.0
2,2, 1, 2, 0, 4,10.00,20.00,Monday
10,968.719248
595,189822.46150457304
644,0.0
698,0.0
2,2, 1, 2, 0, 4,20.00,30.00,Monday
10,968.719248
595,190529.25495465668
644,0.0
698,0.0
2,2, 1, 2, 0, 4,30.00,40.00,Monday
10,968.719248
595,191228.14197117487
644,0.0
698,0.0
2,2, 1, 2, 0, 4,40.00,50.00,Monday
10,968.719248
595,191918.293937576
644,0.0
698,0.0
2,2, 1, 2, 0, 4,50.00,60.00,Monday
10,968.719248
595,192599.49007613437
644,0.0
698,0.0
2,2, 1, 2, 0, 4, 0.00,60.00,Monday
11,5812.315488
596,1145206.4818346666
645,0.0
699,0.0
2,2, 1, 2, 0, 5, 0.00,10.00,Monday
10,968.719248
595,193324.23988827115
644,0.0
698,0.0
2,2, 1, 2, 0, 5,10.00,20.00,Monday
10,968.719248
595,194041.7761743026
644,0.0
698,0.0
2,2, 1, 2, 0, 5,20.00,30.00,Monday
10,968.719248
595,194754.94940675799
644,0.0
698,0.0
2,2, 1, 2, 0, 5,30.00,40.00,Monday
10,968.719248
595,195466.52178485454
644,0.0
698,0.0
2,2, 1, 2, 0, 5,40.00,50.00,Monday
10,968.719248
595,196183.06878601068
644,0.0
698,0.0
2,2, 1, 2, 0, 5,50.00,60.00,Monday
10,968.719248
595,196908.27584392287
644,0.0
698,0.0
2,2, 1, 2, 0, 5, 0.00,60.00,Monday
11,5812.315488
596,1170678.8318841197
645,0.0
699,0.0
2,2, 1, 2, 0, 6, 0.00,10.00,Monday
10,968.719248
595,765792.1572151955
644,0.0
698,0.0
2,2, 1, 2, 0, 6,10.00,20.00,Monday
10,968.719248
595,765792.1572151958
644,0.0
698,0.0
2,2, 1, 2, 0, 6,20.00,30.00,Monday
10,968.719248
595,765792.1572151962
644,0.0
698,0.0
2,2, 1, 2, 0, 6,30.00,40.00,Monday
10,968.719248
595,765792.1572151958
644,0.0
698,0.0
2,2, 1, 2, 0, 6,40.00,50.00,Monday
10,968.719248
595,765792.1572151962
644,0.0
698,0.0
2,2, 1, 2, 0, 6,50.00,60.00,Monday
10,968.719248
595,765792.1572151964
644,0.0
698,0.0
2,2, 1, 2, 0, 6, 0.00,60.00,Monday
11,5812.315488
596,4594752.943291176
645,0.0
699,0.0
2,2, 1, 2, 0, 7, 0.00,10.00,Monday
10,968.719248
595,765792.1572151957
644,0.0
698,0.0
2,2, 1, 2, 0, 7,10.00,20.00,Monday
10,968.719248
595,765792.1572151958
644,0.0
698,0.0
2,2, 1, 2, 0, 7,20.00,30.00,Monday
10,968.719248
595,765792.1572151958
644,0.0
698,0.0
2,2, 1, 2, 0, 7,30.00,40.00,Monday
10,968.719248
595,765792.1572151957
644,0.0
698,0.0
2,2, 1, 2, 0, 7,40.00,50.00,Monday
10,968.719248
595,765792.1572151958
644,0.0
698,0.0
2,2, 1, 2, 0, 7,50.00,60.00,Monday
10,968.719248
595,765792.1572151962
644,0.0
698,0.0
2,2, 1, 2, 0, 7, 0.00,60.00,Monday
11,5812.315488
596,4594752.943291174
645,0.0
699,0.0
2,2, 1, 2, 0, 8, 0.00,10.00,Monday
10,156227.36280000004
595,1721523.0801033285
644,0.0
698,0.0
2,2, 1, 2, 0, 8,10.00,20.00,Monday
10,156227.36280000004
595,1721523.080103329
644,0.0
698,0.0
2,2, 1, 2, 0, 8,20.00,30.00,Monday
10,156227.36280000004
595,1721523.0801033285
644,0.0
698,0.0
2,2, 1, 2, 0, 8,30.00,40.00,Monday
10,156227.36280000004
595,1721523.0801033285
644,0.0
698,0.0
2,2, 1, 2, 0, 8,40.00,50.00,Monday
10,156227.36280000004
595,1721523.080103329
644,0.0
698,0.0
2,2, 1, 2, 0, 8,50.00,60.00,Monday
10,156227.36280000004
595,1701246.9227931423
644,0.0
698,0.0
2,2, 1, 2, 0, 8, 0.00,60.00,Monday
11,937364.1768000001
596,10308862.323309785
645,0.0
699,0.0
2,2, 1, 2, 0, 9, 0.00,10.00,Monday
10,269334.96839999998
595,1681282.167438508
644,0.0
698,0.0
2,2, 1, 2, 0, 9,10.00,20.00,Monday
10,269334.96839999998
595,1658902.328467295
644,0.0
698,0.0
2,2, 1, 2, 0, 9,20.00,30.00,Monday
10,265066.84617038609
595,1639484.5220592423
644,0.0
698,0.0
2,2, 1, 2, 0, 9,30.00,40.00,Monday
10,257043.89262884137
595,1621439.032569613
644,0.0
698,0.0
2,2, 1, 2, 0, 9,40.00,50.00,Monday
10,245635.22991914943
595,1604768.4213488615
644,0.0
698,0.0
2,2, 1, 2, 0, 9,50.00,60.00,Monday
10,230839.71620542036
595,1589280.3710789877
644,0.0
698,0.0
2,2, 1, 2, 0, 9, 0.00,60.00,Monday
11,1537255.6217237972
596,9795156.842962508
645,0.0
699,0.0
2,2, 1, 2, 0,10, 0.00,10.00,Monday
10,300741.10699207658
595,1581225.500015958
644,0.0
698,0.0
2,2, 1, 2, 0,10,10.00,20.00,Monday
10,282764.69235913307
595,1563988.8297558656
644,0.0
698,0.0
2,2, 1, 2, 0,10,20.00,30.00,Monday
10,264329.39906780919
595,1547877.0130225023
644,0.0
698,0.0
2,2, 1, 2, 0,10,30.00,40.00,Monday
10,220100.03790609574
595,1532497.1814271394
644,0.0
698,0.0
2,2, 1, 2, 0,10,40.00,50.00,Monday
10,191047.67940000003
595,1517632.81559876
644,0.0
698,0.0
2,2, 1, 2, 0,10,50.00,60.00,Monday
10,240281.24245722756
595,1503170.9182744702
644,0.0
698,0.0
2,2, 1, 2, 0,10, 0.00,60.00,Monday
11,1499264.158182342
596,9246392.258094695
645,0.0
699,0.0
2,2, 1, 2, 0,11, 0.00,10.00,Monday
10,212552.9917995044
595,1489756.5884885644
644,0.0
698,0.0
2,2, 1, 2, 0,11,10.00,20.00,Monday
10,266473.84214315519
595,1476527.0680626434
644,0.0
698,0.0
2,2, 1, 2, 0,11,20.00,30.00,Monday
10,253621.4473788606
595,1463469.5373361933
644,0.0
698,0.0
2,2, 1, 2, 0,11,30.00,40.00,Monday
10,254061.00549957308
595,1450629.2633632213
644,0.0
698,0.0
2,2, 1, 2, 0,11,40.00,50.00,Monday
10,255243.08284096555
595,1438079.7933337263
644,0.0
698,0.0
2,2, 1, 2, 0,11,50.00,60.00,Monday
10,259732.85117251817
595,1425974.3645034242
644,0.0
698,0.0
2,2, 1, 2, 0,11, 0.00,60.00,Monday
11,1501685.220834577
596,8744436.615087772
645,0.0
699,0.0
2,2, 1, 2, 0,12, 0.00,10.00,Monday
10,222442.63772855694
595,1414271.312362406
644,0.0
698,0.0
2,2, 1, 2, 0,12,10.00,20.00,Monday
10,218721.76843854568
595,1403155.1149303818
644,0.0
698,0.0
2,2, 1, 2, 0,12,20.00,30.00,Monday
10,172772.85552
595,1392584.713186343
644,0.0
698,0.0
2,2, 1, 2, 0,12,30.00,40.00,Monday
10,172772.85552
595,1382576.817032849
644,0.0
698,0.0
2,2, 1, 2, 0,12,40.00,50.00,Monday
10,172772.85552
595,1373037.431208217
644,0.0
698,0.0
2,2, 1, 2, 0,12,50.00,60.00,Monday
10,172772.85552
595,1363879.7907637379
644,0.0
698,0.0
2,2, 1, 2, 0,12, 0.00,60.00,Monday
11,1132255.8282471027
596,8329505.179483935
645,0.0
699,0.0
2,2, 1, 2, 0,13, 0.00,10.00,Monday
10,140791.91373
595,997020.6555714788
644,0.0
698,0.0
2,2, 1, 2, 0,13,10.00,20.00,Monday
10,140791.91373
595,1040105.0275599422
644,0.0
698,0.0
2,2, 1, 2, 0,13,20.00,30.00,Monday
10,140791.91373
595,1033367.2642416193
644,0.0
698,0.0
2,2, 1, 2, 0,13,30.00,40.00,Monday
10,140791.91373
595,1045838.2553590485
644,0.0
698,0.0
2,2, 1, 2, 0,13,40.00,50.00,Monday
10,140791.91373
595,1033960.2744325525
644,0.0
698,0.0
2,2, 1, 2, 0,13,50.00,60.00,Monday
10,140791.91373
595,1028358.1399555212
644,0.0
698,0.0
2,2, 1, 2, 0,13, 0.00,60.00,Monday
11,844751.4823800001
596,6178649.617120163
645,0.0
699,0.0
2,2, 1, 2, 0,14, 0.00,10.00,Monday
10,159066.73761
595,1316455.7408440463
644,0.0
698,0.0
2,2, 1, 2, 0,14,10.00,20.00,Monday
10,159066.73761
595,1311170.8135823399
644,0.0
698,0.0
2,2, 1, 2, 0,14,20.00,30.00,Monday
10,193790.1365188907
595,1306046.963307538
644,0.0
698,0.0
2,2, 1, 2, 0,14,30.00,40.00,Monday
10,159066.73761
595,1301010.6512514253
644,0.0
698,0.0
2,2, 1, 2, 0,14,40.00,50.00,Monday
10,159066.73761
595,1296093.288984199
644,0.0
698,0.0
2,2, 1, 2, 0,14,50.00,60.00,Monday
10,159066.73761
595,1291346.1603113947
644,0.0
698,0.0
2,2, 1, 2, 0,14, 0.00,60.00,Monday
11,989123.8245688907
596,7822123.618280943
645,0.0
699,0.0
2,2, 1, 2, 0,15, 0.00,10.00,Monday
10,191047.67940000003
595,1285412.0820469524
644,0.0
698,0.0
2,2, 1, 2, 0,15,10.00,20.00,Monday
10,191047.67940000003
595,1280243.3060560853
644,0.0
698,0.0
2,2, 1, 2, 0,15,20.00,30.00,Monday
10,191047.67940000003
595,1275477.2324961213
644,0.0
698,0.0
2,2, 1, 2, 0,15,30.00,40.00,Monday
10,191047.67940000003
595,1271818.0736924897
644,0.0
698,0.0
2,2, 1, 2, 0,15,40.00,50.00,Monday
10,191047.67940000003
595,1269537.7026202575
644,0.0
698,0.0
2,2, 1, 2, 0,15,50.00,60.00,Monday
10,191047.67940000003
595,1267928.2535434338
644,0.0
698,0.0
2,2, 1, 2, 0,15, 0.00,60.00,Monday
11,1146286.0764000002
596,7650416.65045534
645,0.0
699,0.0
2,2, 1, 2, 0,16, 0.00,10.00,Monday
10,172772.85552
595,1266771.02965529
644,0.0
698,0.0
2,2, 1, 2, 0,16,10.00,20.00,Monday
10,172772.85552
595,1265403.0823462082
644,0.0
698,0.0
2,2, 1, 2, 0,16,20.00,30.00,Monday
10,188587.2424049734
595,1263768.1358553894
644,0.0
698,0.0
2,2, 1, 2, 0,16,30.00,40.00,Monday
10,208901.4910580909
595,1261902.7465047725
644,0.0
698,0.0
2,2, 1, 2, 0,16,40.00,50.00,Monday
10,228577.6275582089
595,1259848.4421515957
644,0.0
698,0.0
2,2, 1, 2, 0,16,50.00,60.00,Monday
10,247637.17763121413
595,1257654.1119584763
644,0.0
698,0.0
2,2, 1, 2, 0,16, 0.00,60.00,Monday
11,1219249.2496924874
596,7575347.548471732
645,0.0
699,0.0
2,2, 1, 2, 0,17, 0.00,10.00,Monday
10,224487.37603538839
595,1254702.9317652735
644,0.0
698,0.0
2,2, 1, 2, 0,17,10.00,20.00,Monday
10,237876.60869789558
595,1251687.8398187268
644,0.0
698,0.0
2,2, 1, 2, 0,17,20.00,30.00,Monday
10,250773.5459178973
595,1248639.8013896035
644,0.0
698,0.0
2,2, 1, 2, 0,17,30.00,40.00,Monday
10,253880.53445707545
595,1245584.267379987
644,0.0
698,0.0
2,2, 1, 2, 0,17,40.00,50.00,Monday
10,256946.3203214914
595,1242532.6628457574
644,0.0
698,0.0
2,2, 1, 2, 0,17,50.00,60.00,Monday
10,269334.96839999998
595,1239496.5127620227
644,0.0
698,0.0
2,2, 1, 2, 0,17, 0.00,60.00,Monday
11,1493299.353829748
596,7482644.015961371
645,0.0
699,0.0
2,2, 1, 2, 0,18, 0.00,10.00,Monday
10,156227.36280000004
595,823142.1308797042
644,0.0
698,0.0
2,2, 1, 2, 0,18,10.00,20.00,Monday
10,156227.36280000004
595,821815.0046033578
644,0.0
698,0.0
2,2, 1, 2, 0,18,20.00,30.00,Monday
10,156227.36280000004
595,820181.4115056233
644,0.0
698,0.0
2,2, 1, 2, 0,18,30.00,40.00,Monday
10,156227.36280000004
595,834557.5569139792
644,0.0
698,0.0
2,2, 1, 2, 0,18,40.00,50.00,Monday
10,156227.36280000004
595,891789.9799492575
644,0.0
698,0.0
2,2, 1, 2, 0,18,50.00,60.00,Monday
10,156227.36280000004